 Entering Gaussian System, Link 0=g09
 Initial command:
 /sob/g09/l1.exe "/sob/g09/scratch/Gau-33640.inp" -scrdir="/sob/g09/scratch/"
 Default is to use a total of   4 processors:
                                4 via shared-memory
                                1 via Linda
 Entering Link 1 = /sob/g09/l1.exe PID=     33642.
  
 Copyright (c) 1988,1990,1992,1993,1995,1998,2003,2009,2013,
            Gaussian, Inc.  All Rights Reserved.
  
 This is part of the Gaussian(R) 09 program.  It is based on
 the Gaussian(R) 03 system (copyright 2003, Gaussian, Inc.),
 the Gaussian(R) 98 system (copyright 1998, Gaussian, Inc.),
 the Gaussian(R) 94 system (copyright 1995, Gaussian, Inc.),
 the Gaussian 92(TM) system (copyright 1992, Gaussian, Inc.),
 the Gaussian 90(TM) system (copyright 1990, Gaussian, Inc.),
 the Gaussian 88(TM) system (copyright 1988, Gaussian, Inc.),
 the Gaussian 86(TM) system (copyright 1986, Carnegie Mellon
 University), and the Gaussian 82(TM) system (copyright 1983,
 Carnegie Mellon University). Gaussian is a federally registered
 trademark of Gaussian, Inc.
  
 This software contains proprietary and confidential information,
 including trade secrets, belonging to Gaussian, Inc.
  
 This software is provided under written license and may be
 used, copied, transmitted, or stored only in accord with that
 written license.
  
 The following legend is applicable only to US Government
 contracts under FAR:
  
                    RESTRICTED RIGHTS LEGEND
  
 Use, reproduction and disclosure by the US Government is
 subject to restrictions as set forth in subparagraphs (a)
 and (c) of the Commercial Computer Software - Restricted
 Rights clause in FAR 52.227-19.
  
 Gaussian, Inc.
 340 Quinnipiac St., Bldg. 40, Wallingford CT 06492
  
  
 ---------------------------------------------------------------
 Warning -- This program may not be used in any manner that
 competes with the business of Gaussian, Inc. or will provide
 assistance to any competitor of Gaussian, Inc.  The licensee
 of this program is prohibited from giving any competitor of
 Gaussian, Inc. access to this program.  By using this program,
 the user acknowledges that Gaussian, Inc. is engaged in the
 business of creating and licensing software in the field of
 computational chemistry and represents and warrants to the
 licensee that it is not a competitor of Gaussian, Inc. and that
 it will not use this program in any manner prohibited above.
 ---------------------------------------------------------------
  

 Cite this work as:
 Gaussian 09, Revision D.01,
 M. J. Frisch, G. W. Trucks, H. B. Schlegel, G. E. Scuseria, 
 M. A. Robb, J. R. Cheeseman, G. Scalmani, V. Barone, B. Mennucci, 
 G. A. Petersson, H. Nakatsuji, M. Caricato, X. Li, H. P. Hratchian, 
 A. F. Izmaylov, J. Bloino, G. Zheng, J. L. Sonnenberg, M. Hada, 
 M. Ehara, K. Toyota, R. Fukuda, J. Hasegawa, M. Ishida, T. Nakajima, 
 Y. Honda, O. Kitao, H. Nakai, T. Vreven, J. A. Montgomery, Jr., 
 J. E. Peralta, F. Ogliaro, M. Bearpark, J. J. Heyd, E. Brothers, 
 K. N. Kudin, V. N. Staroverov, T. Keith, R. Kobayashi, J. Normand, 
 K. Raghavachari, A. Rendell, J. C. Burant, S. S. Iyengar, J. Tomasi, 
 M. Cossi, N. Rega, J. M. Millam, M. Klene, J. E. Knox, J. B. Cross, 
 V. Bakken, C. Adamo, J. Jaramillo, R. Gomperts, R. E. Stratmann, 
 O. Yazyev, A. J. Austin, R. Cammi, C. Pomelli, J. W. Ochterski, 
 R. L. Martin, K. Morokuma, V. G. Zakrzewski, G. A. Voth, 
 P. Salvador, J. J. Dannenberg, S. Dapprich, A. D. Daniels, 
 O. Farkas, J. B. Foresman, J. V. Ortiz, J. Cioslowski, 
 and D. J. Fox, Gaussian, Inc., Wallingford CT, 2013.
 
 ******************************************
 Gaussian 09:  ES64L-G09RevD.01 24-Apr-2013
                29-May-2018 
 ******************************************
 %chk=mol.chk
 -----------------------------------------
 #P freq geom=allcheck external='./xtb.sh'
 -----------------------------------------
 1/10=4,18=10,29=7,30=1,38=1/1,3;
 2/12=2,40=1/2;
 3/11=9,14=-4,16=1,25=1,30=1,41=9900000,43=2,71=2,140=1/1;
 4/20=17,22=2,24=3,113=1,114=1/2;
 6/7=2,8=2,9=2,10=2/1;
 7/8=1,25=1,44=-1/16;
 1/10=4,18=10,30=1/3;
 99//99;
 Leave Link    1 at Tue May 29 05:57:15 2018, MaxMem=           0 cpu:         0.1
 (Enter /sob/g09/l101.exe)
 Structure from the checkpoint file:  "mol.chk"
 -------------------
 Title Card Required
 -------------------
 Charge =  0 Multiplicity = 1
 Redundant internal coordinates found in file.
 C,0,1.4526332546,-0.8439513842,-0.0628834687
 C,0,0.1413117486,-0.5260965805,0.5301447023
 C,0,0.7356418303,0.1697700785,-0.9274670231
 H,0,2.3211117432,-0.5308813462,0.5018137379
 H,0,1.5768720139,-1.8091776562,-0.5337864099
 H,0,0.0625461716,-0.0186243158,1.4934988731
 H,0,0.6833150375,-0.0240206746,-1.989079136
 H,0,0.9165114506,1.2179047247,-0.7086501547
 C,0,-0.8241882994,-0.5724082678,-0.4881441224
 O,0,-1.9317806318,0.2208620068,-0.2164897219
 H,0,-2.5875279091,0.0730994053,-0.9082869965
 Recover connectivity data from disk.
 NAtoms=     11 NQM=       11 NQMF=       0 NMMI=      0 NMMIF=      0
                NMic=       0 NMicF=      0.
                    Isotopes and Nuclear Properties:
 (Nuclear quadrupole moments (NQMom) in fm**2, nuclear magnetic moments (NMagM)
  in nuclear magnetons)

  Atom         1           2           3           4           5           6           7           8           9          10
 IAtWgt=          12          12          12           1           1           1           1           1          12          16
 AtmWgt=  12.0000000  12.0000000  12.0000000   1.0078250   1.0078250   1.0078250   1.0078250   1.0078250  12.0000000  15.9949146
 NucSpn=           0           0           0           1           1           1           1           1           0           0
 AtZEff=  -3.6000000  -3.6000000  -3.6000000  -1.0000000  -1.0000000  -1.0000000  -1.0000000  -1.0000000  -3.6000000  -5.6000000
 NQMom=    0.0000000   0.0000000   0.0000000   0.0000000   0.0000000   0.0000000   0.0000000   0.0000000   0.0000000   0.0000000
 NMagM=    0.0000000   0.0000000   0.0000000   2.7928460   2.7928460   2.7928460   2.7928460   2.7928460   0.0000000   0.0000000
 AtZNuc=   6.0000000   6.0000000   6.0000000   1.0000000   1.0000000   1.0000000   1.0000000   1.0000000   6.0000000   8.0000000

  Atom        11
 IAtWgt=           1
 AtmWgt=   1.0078250
 NucSpn=           1
 AtZEff=  -1.0000000
 NQMom=    0.0000000
 NMagM=    2.7928460
 AtZNuc=   1.0000000
 Leave Link  101 at Tue May 29 05:57:15 2018, MaxMem=   402653184 cpu:         0.3
 (Enter /sob/g09/l103.exe)

 GradGradGradGradGradGradGradGradGradGradGradGradGradGradGradGradGradGrad
 Berny optimization.
 Initialization pass.
 Trust Radius=3.00D-01 FncErr=1.00D-07 GrdErr=1.00D-07
 Number of steps in this run=      2 maximum allowed number of steps=      2.
 GradGradGradGradGradGradGradGradGradGradGradGradGradGradGradGradGradGrad

 Leave Link  103 at Tue May 29 05:57:15 2018, MaxMem=   402653184 cpu:         0.0
 (Enter /sob/g09/l202.exe)
                          Input orientation:                          
 ---------------------------------------------------------------------
 Center     Atomic      Atomic             Coordinates (Angstroms)
 Number     Number       Type             X           Y           Z
 ---------------------------------------------------------------------
      1          6           0        1.452633   -0.843951   -0.062883
      2          6           0        0.141312   -0.526097    0.530145
      3          6           0        0.735642    0.169770   -0.927467
      4          1           0        2.321112   -0.530881    0.501814
      5          1           0        1.576872   -1.809178   -0.533786
      6          1           0        0.062546   -0.018624    1.493499
      7          1           0        0.683315   -0.024021   -1.989079
      8          1           0        0.916511    1.217905   -0.708650
      9          6           0       -0.824188   -0.572408   -0.488144
     10          8           0       -1.931781    0.220862   -0.216490
     11          1           0       -2.587528    0.073099   -0.908287
 ---------------------------------------------------------------------
                    Distance matrix (angstroms):
                    1          2          3          4          5
     1  C    0.000000
     2  C    1.473865   0.000000
     3  C    1.513014   1.721073   0.000000
     4  H    1.082197   2.179989   2.246658   0.000000
     5  H    1.081132   2.199791   2.186067   1.805658   0.000000
     6  H    2.244066   1.091688   2.519846   2.519318   3.099863
     7  H    2.230329   2.625326   1.080423   3.023877   2.470447
     8  H    2.226138   2.275321   1.085901   2.548799   3.103205
     9  C    2.332059   1.404011   1.782387   3.297674   2.701254
    10  O    3.551293   2.326612   2.761022   4.378147   4.066003
    11  H    4.228308   3.142402   3.324631   5.142754   4.585351
                    6          7          8          9         10
     6  H    0.000000
     7  H    3.537475   0.000000
     8  H    2.666031   1.798960   0.000000
     9  C    2.240510   2.196839   2.506767   0.000000
    10  O    2.637945   3.168717   3.057627   1.389185   0.000000
    11  H    3.577692   3.446151   3.691710   1.924205   0.964584
                   11
    11  H    0.000000
 Stoichiometry    C4H6O
 Framework group  C1[X(C4H6O)]
 Deg. of freedom    27
 Full point group                 C1      NOp   1
 RotChk:  IX=2 Diff= 7.27D-16
 Largest Abelian subgroup         C1      NOp   1
 Largest concise Abelian subgroup C1      NOp   1
                         Standard orientation:                         
 ---------------------------------------------------------------------
 Center     Atomic      Atomic             Coordinates (Angstroms)
 Number     Number       Type             X           Y           Z
 ---------------------------------------------------------------------
      1          6           0       -1.635816   -0.218175    0.181016
      2          6           0       -0.312467   -0.787625   -0.130034
      3          6           0       -0.693200    0.887051   -0.242262
      4          1           0       -2.444739   -0.499611   -0.480488
      5          1           0       -1.934425   -0.163641    1.218660
      6          1           0       -0.171406   -1.467579   -0.972380
      7          1           0       -0.638260    1.766367    0.383117
      8          1           0       -0.665975    1.131621   -1.299913
      9          6           0        0.664028    0.000953    0.499131
     10          8           0        1.897773   -0.061044   -0.136372
     11          1           0        2.537354    0.427974    0.394871
 ---------------------------------------------------------------------
 Rotational constants (GHZ):     14.9417925      3.9422019      3.5199017
 Leave Link  202 at Tue May 29 05:57:15 2018, MaxMem=   402653184 cpu:         0.0
 (Enter /sob/g09/l301.exe)
 Standard basis: STO-3G (5D, 7F)
 Ernie: Thresh=  0.10000D-02 Tol=  0.10000D-05 Strict=F.
 There are    31 symmetry adapted cartesian basis functions of A   symmetry.
 There are    31 symmetry adapted basis functions of A   symmetry.
    31 basis functions,    93 primitive gaussians,    31 cartesian basis functions
    19 alpha electrons       19 beta electrons
       nuclear repulsion energy       167.2041390081 Hartrees.
 IExCor=    0 DFT=F Ex=HF Corr=None ExCW=0 ScaHFX=  1.000000
 ScaDFX=  1.000000  1.000000  1.000000  1.000000 ScalE2=  1.000000  1.000000
 IRadAn=      0 IRanWt=     -1 IRanGd=            0 ICorTp=0 IEmpDi=  4
 NAtoms=   11 NActive=   11 NUniq=   11 SFac= 1.00D+00 NAtFMM=   60 NAOKFM=F Big=F
 Integral buffers will be    131072 words long.
 Raffenetti 1 integral format.
 Two-electron integral symmetry is turned on.
 Leave Link  301 at Tue May 29 05:57:15 2018, MaxMem=   402653184 cpu:         0.1
 (Enter /sob/g09/l402.exe)
 External calculation of energy, first and second derivatives.
 Running external command "./xtb.sh R"
         input file       "/sob/g09/scratch/Gau-33642.EIn"
         output file      "/sob/g09/scratch/Gau-33642.EOu"
         message file     "/sob/g09/scratch/Gau-33642.EMs"
         fchk file        "/sob/g09/scratch/Gau-33642.EFC"
         mat. el file     "/sob/g09/scratch/Gau-33642.EUF"
Generating mol.tmp
Generating mol.xyz via genxyz
Running: xtb mol.xyz -chrg 0 -uhf 0 -hess > xtbout
xtb running finished!
Extracting data from xtb outputs via extderi
 Recovered energy= -15.5282213438     dipole=      0.000000000000      0.000000000000      0.000000000000
 Energy=    -15.5282213     NIter=   0.
 Dipole moment=       0.000000       0.000000       0.000000
 Leave Link  402 at Tue May 29 05:57:16 2018, MaxMem=   402653184 cpu:         1.4
 (Enter /sob/g09/l601.exe)
 Leave Link  601 at Tue May 29 05:57:16 2018, MaxMem=   402653184 cpu:         0.0
 (Enter /sob/g09/l716.exe)
 Dipole        = 0.00000000D+00 0.00000000D+00 0.00000000D+00
 Full mass-weighted force constant matrix:
 Low frequencies --- -732.7182   -0.0180   -0.0024    0.0083    0.0188    0.0219
 Low frequencies ---    0.0261  243.9708  298.1345
 ******    1 imaginary frequencies (negative Signs) ****** 
 Diagonal vibrational polarizability:
        0.0000000       0.0000000       0.0000000
 Harmonic frequencies (cm**-1), IR intensities (KM/Mole), Raman scattering
 activities (A**4/AMU), depolarization ratios for plane and unpolarized
 incident light, reduced masses (AMU), force constants (mDyne/A),
 and normal coordinates:
                      1                      2                      3
                      A                      A                      A
 Frequencies --   -732.7182               243.9708               298.1345
 Red. masses --      3.1798                 2.9021                 4.1671
 Frc consts  --      1.0058                 0.1018                 0.2182
 IR Inten    --      0.0000                 0.0000                 0.0000
  Atom  AN      X      Y      Z        X      Y      Z        X      Y      Z
     1   6    -0.07  -0.02   0.03     0.04   0.02   0.18     0.02   0.10   0.05
     2   6    -0.02   0.22  -0.04    -0.03   0.02  -0.20    -0.09  -0.13  -0.04
     3   6    -0.09  -0.13  -0.16    -0.09   0.01  -0.09     0.26  -0.13  -0.05
     4   1    -0.05  -0.11   0.06    -0.18   0.05   0.44    -0.12   0.29   0.15
     5   1    -0.01   0.05   0.04     0.39  -0.01   0.28     0.17   0.22   0.09
     6   1     0.02   0.59  -0.34    -0.21  -0.05  -0.17    -0.23  -0.01  -0.16
     7   1     0.35  -0.33   0.04     0.08   0.08  -0.21     0.38  -0.03  -0.19
     8   1    -0.21   0.05  -0.12    -0.35  -0.08  -0.13     0.35  -0.26  -0.09
     9   6     0.16  -0.07   0.24    -0.04  -0.05  -0.15    -0.07  -0.21   0.08
    10   8     0.00  -0.01  -0.03     0.11   0.00   0.17    -0.10   0.25  -0.03
    11   1     0.08  -0.09  -0.05    -0.06   0.07   0.31    -0.18   0.18   0.13
                      4                      5                      6
                      A                      A                      A
 Frequencies --    489.3459               522.2260               631.4772
 Red. masses --      2.6739                 1.2320                 4.9389
 Frc consts  --      0.3772                 0.1980                 1.1604
 IR Inten    --      0.0000                 0.0000                 0.0000
  Atom  AN      X      Y      Z        X      Y      Z        X      Y      Z
     1   6     0.14  -0.07   0.04     0.05   0.00   0.00     0.18   0.10  -0.05
     2   6     0.09   0.03  -0.09     0.03   0.01  -0.04     0.12  -0.12   0.03
     3   6     0.08   0.01  -0.02     0.02   0.02   0.00    -0.29   0.26  -0.10
     4   1    -0.03   0.00   0.22     0.01   0.03   0.04     0.15  -0.08   0.04
     5   1     0.42  -0.13   0.12     0.11  -0.05   0.02     0.21   0.03  -0.03
     6   1     0.32   0.18  -0.16     0.09   0.02  -0.03     0.17  -0.49   0.33
     7   1    -0.08   0.13  -0.16     0.03   0.03   0.00     0.18   0.18  -0.05
     8   1     0.07  -0.11  -0.06    -0.01   0.03   0.00    -0.13   0.13  -0.10
     9   6    -0.12   0.15   0.08    -0.02  -0.01   0.04     0.07  -0.28   0.15
    10   8    -0.19  -0.06  -0.01    -0.06  -0.07   0.03    -0.10   0.06  -0.04
    11   1     0.09  -0.59   0.14    -0.23   0.78  -0.54     0.05  -0.26   0.09
                      7                      8                      9
                      A                      A                      A
 Frequencies --    796.0329               860.0452               922.1627
 Red. masses --      1.0776                 1.2494                 1.6367
 Frc consts  --      0.4023                 0.5445                 0.8200
 IR Inten    --      0.0000                 0.0000                 0.0000
  Atom  AN      X      Y      Z        X      Y      Z        X      Y      Z
     1   6     0.00   0.03   0.02    -0.03   0.02  -0.03     0.02  -0.08   0.07
     2   6     0.03   0.00  -0.01    -0.01  -0.04   0.02    -0.02   0.16  -0.05
     3   6    -0.02  -0.03   0.05    -0.07   0.03   0.05     0.06   0.06   0.01
     4   1     0.15   0.34  -0.31    -0.14   0.01   0.12     0.33  -0.49  -0.15
     5   1    -0.27  -0.38  -0.04     0.16   0.02   0.03    -0.34   0.02  -0.05
     6   1     0.08   0.02  -0.02     0.04   0.39  -0.32    -0.35  -0.16   0.15
     7   1     0.32   0.23  -0.33    -0.39   0.31  -0.31    -0.23   0.26  -0.25
     8   1    -0.36  -0.37  -0.06     0.38  -0.42  -0.05     0.23  -0.21  -0.06
     9   6     0.01   0.01   0.00     0.00  -0.03   0.04     0.01  -0.09  -0.01
    10   8    -0.01   0.00   0.00     0.07  -0.01  -0.02    -0.03   0.00   0.00
    11   1     0.02  -0.02  -0.02     0.05   0.04  -0.06    -0.05  -0.01   0.03
                     10                     11                     12
                      A                      A                      A
 Frequencies --    940.1512              1019.7769              1031.2791
 Red. masses --      1.4324                 1.1668                 2.5472
 Frc consts  --      0.7460                 0.7149                 1.5961
 IR Inten    --      0.0000                 0.0000                 0.0000
  Atom  AN      X      Y      Z        X      Y      Z        X      Y      Z
     1   6     0.10   0.01   0.04    -0.04  -0.06   0.00     0.00   0.14   0.04
     2   6     0.00  -0.10   0.08    -0.02   0.01   0.02     0.17   0.03  -0.11
     3   6    -0.02   0.03  -0.03    -0.04   0.06   0.00    -0.15  -0.18   0.09
     4   1     0.33  -0.22  -0.16    -0.04  -0.20   0.07     0.12   0.00  -0.05
     5   1    -0.25   0.18  -0.08     0.06  -0.20   0.04    -0.23   0.58  -0.06
     6   1    -0.27   0.55  -0.49     0.11   0.04   0.02     0.07  -0.16   0.03
     7   1     0.12  -0.06   0.09     0.77  -0.01   0.01     0.06  -0.18   0.07
     8   1    -0.11   0.10  -0.01     0.53  -0.08  -0.01     0.56  -0.24   0.10
     9   6     0.00   0.01  -0.07    -0.03   0.03  -0.04     0.04   0.03  -0.08
    10   8    -0.05  -0.01   0.03     0.01   0.00   0.00    -0.08  -0.01   0.04
    11   1    -0.10   0.03   0.07    -0.06   0.04   0.05     0.01  -0.04  -0.03
                     13                     14                     15
                      A                      A                      A
 Frequencies --   1095.9748              1121.3000              1136.9940
 Red. masses --      1.6640                 1.9225                 1.3211
 Frc consts  --      1.1776                 1.4242                 1.0062
 IR Inten    --      0.0000                 0.0000                 0.0000
  Atom  AN      X      Y      Z        X      Y      Z        X      Y      Z
     1   6    -0.06   0.11  -0.10     0.01  -0.05  -0.03    -0.03  -0.10   0.03
     2   6     0.02   0.04   0.05     0.01   0.05   0.09     0.02   0.04   0.04
     3   6     0.05  -0.04   0.07    -0.02   0.00  -0.04     0.02   0.04  -0.01
     4   1    -0.04  -0.68   0.24    -0.17   0.53  -0.05    -0.13   0.30  -0.01
     5   1     0.31  -0.19   0.04     0.25  -0.46   0.06    -0.16   0.43  -0.03
     6   1     0.25   0.10   0.02    -0.40   0.03   0.01     0.63   0.17   0.04
     7   1     0.05   0.08  -0.09    -0.20  -0.07   0.06    -0.02   0.07  -0.05
     8   1    -0.37  -0.13   0.03     0.32  -0.03  -0.03    -0.07   0.01  -0.02
     9   6     0.07  -0.04  -0.09     0.18  -0.01  -0.11     0.02  -0.07  -0.07
    10   8    -0.06   0.00   0.02    -0.12   0.01   0.06    -0.02  -0.01  -0.01
    11   1    -0.17   0.02   0.15    -0.09  -0.01   0.07    -0.34   0.08   0.30
                     16                     17                     18
                      A                      A                      A
 Frequencies --   1143.7383              1204.2758              1294.3643
 Red. masses --      1.4165                 2.0084                 1.7696
 Frc consts  --      1.0917                 1.7162                 1.7467
 IR Inten    --      0.0000                 0.0000                 0.0000
  Atom  AN      X      Y      Z        X      Y      Z        X      Y      Z
     1   6     0.01   0.11   0.09     0.16   0.00  -0.10    -0.11   0.01   0.02
     2   6    -0.01   0.01   0.01    -0.05   0.11   0.05     0.15  -0.08  -0.05
     3   6    -0.01  -0.04  -0.08    -0.07  -0.08   0.06     0.03   0.04  -0.02
     4   1     0.26  -0.05  -0.15     0.13   0.14  -0.10    -0.22  -0.06   0.17
     5   1    -0.10  -0.58   0.09     0.36   0.14  -0.05    -0.23  -0.11   0.00
     6   1     0.40   0.07   0.03    -0.34  -0.04   0.13    -0.40  -0.12  -0.11
     7   1    -0.33  -0.17   0.15     0.08  -0.09   0.04     0.00   0.11  -0.09
     8   1     0.30   0.13  -0.02    -0.09  -0.20   0.04     0.00   0.16   0.00
     9   6    -0.06  -0.03  -0.01    -0.09   0.01   0.03     0.04   0.07   0.09
    10   8     0.03  -0.01  -0.03     0.06  -0.03  -0.07     0.00  -0.04  -0.06
    11   1    -0.21   0.06   0.19    -0.53   0.16   0.45    -0.56   0.14   0.47
                     19                     20                     21
                      A                      A                      A
 Frequencies --   1410.5291              1419.2705              1456.0502
 Red. masses --      3.0125                 1.2365                 1.2988
 Frc consts  --      3.5314                 1.4675                 1.6224
 IR Inten    --      0.0000                 0.0000                 0.0000
  Atom  AN      X      Y      Z        X      Y      Z        X      Y      Z
     1   6    -0.08  -0.01  -0.01     0.01   0.01  -0.02     0.13   0.01  -0.04
     2   6     0.25   0.11   0.14     0.08   0.04   0.03    -0.05   0.02   0.01
     3   6     0.00  -0.06  -0.02     0.03   0.06  -0.03    -0.02  -0.06   0.02
     4   1    -0.08   0.14  -0.05    -0.25   0.03   0.28    -0.36  -0.01   0.52
     5   1     0.17  -0.05   0.06    -0.29  -0.09  -0.08    -0.56  -0.18  -0.19
     6   1    -0.32   0.21  -0.05    -0.09   0.04  -0.01     0.05   0.03   0.03
     7   1     0.10   0.19  -0.31    -0.03  -0.34   0.47     0.02   0.15  -0.24
     8   1    -0.02   0.58   0.10    -0.13  -0.59  -0.15     0.08   0.30   0.08
     9   6    -0.23  -0.14  -0.07    -0.07  -0.03  -0.02     0.01   0.00  -0.01
    10   8     0.03   0.01   0.00     0.01   0.00   0.00     0.00   0.00   0.00
    11   1     0.25  -0.06  -0.22     0.07  -0.01  -0.06     0.02   0.00  -0.02
                     22                     23                     24
                      A                      A                      A
 Frequencies --   2903.6536              3006.5044              3038.7161
 Red. masses --      1.0779                 1.0858                 1.0679
 Frc consts  --      5.3545                 5.7825                 5.8098
 IR Inten    --      0.0000                 0.0000                 0.0000
  Atom  AN      X      Y      Z        X      Y      Z        X      Y      Z
     1   6     0.00   0.00   0.00     0.00   0.00  -0.01     0.00   0.00   0.01
     2   6     0.01  -0.05  -0.06     0.00   0.00   0.00     0.00   0.00   0.00
     3   6     0.00   0.00   0.00     0.00   0.00   0.08    -0.01  -0.06  -0.03
     4   1    -0.02  -0.01  -0.02     0.04   0.01   0.03    -0.04  -0.02  -0.03
     5   1     0.01   0.00  -0.02    -0.02   0.00   0.06     0.02   0.00  -0.05
     6   1    -0.13   0.62   0.77     0.00   0.00   0.00     0.00   0.01   0.01
     7   1     0.00  -0.01  -0.01    -0.01  -0.14  -0.06     0.06   0.77   0.60
     8   1     0.00   0.00   0.00     0.03   0.21  -0.96     0.00   0.00  -0.19
     9   6     0.00   0.00   0.00     0.00   0.00   0.00     0.00   0.00   0.00
    10   8     0.00   0.00   0.00     0.00   0.00   0.00     0.00   0.00   0.00
    11   1     0.00   0.00   0.00     0.00   0.00   0.00     0.00   0.00   0.00
                     25                     26                     27
                      A                      A                      A
 Frequencies --   3070.5879              3083.1194              3519.2166
 Red. masses --      1.0567                 1.0987                 1.0653
 Frc consts  --      5.8702                 6.1536                 7.7733
 IR Inten    --      0.0000                 0.0000                 0.0000
  Atom  AN      X      Y      Z        X      Y      Z        X      Y      Z
     1   6    -0.06  -0.02  -0.01     0.00  -0.01  -0.09     0.00   0.00   0.00
     2   6     0.00   0.00   0.00     0.00   0.00   0.00     0.00   0.00   0.00
     3   6     0.00   0.00   0.00     0.00   0.00  -0.01     0.00   0.00   0.00
     4   1     0.67   0.24   0.57     0.30   0.10   0.21     0.00   0.00   0.00
     5   1     0.08  -0.03  -0.39    -0.25   0.05   0.88     0.00   0.00   0.00
     6   1     0.00   0.01   0.01     0.00   0.02   0.02     0.00   0.00   0.00
     7   1     0.00   0.03   0.02     0.00   0.07   0.05     0.00   0.00   0.00
     8   1     0.00   0.00   0.01     0.00  -0.02   0.06     0.00   0.00   0.00
     9   6     0.00   0.00   0.00     0.00   0.00   0.00     0.00   0.00   0.00
    10   8     0.00   0.00   0.00     0.00   0.00   0.00     0.04   0.03   0.04
    11   1     0.00   0.00   0.00     0.00   0.00   0.00    -0.67  -0.50  -0.55

 -------------------
 - Thermochemistry -
 -------------------
 Temperature   298.150 Kelvin.  Pressure   1.00000 Atm.
 Atom     1 has atomic number  6 and mass  12.00000
 Atom     2 has atomic number  6 and mass  12.00000
 Atom     3 has atomic number  6 and mass  12.00000
 Atom     4 has atomic number  1 and mass   1.00783
 Atom     5 has atomic number  1 and mass   1.00783
 Atom     6 has atomic number  1 and mass   1.00783
 Atom     7 has atomic number  1 and mass   1.00783
 Atom     8 has atomic number  1 and mass   1.00783
 Atom     9 has atomic number  6 and mass  12.00000
 Atom    10 has atomic number  8 and mass  15.99491
 Atom    11 has atomic number  1 and mass   1.00783
 Molecular mass:    70.04186 amu.
 Principal axes and moments of inertia in atomic units:
                           1         2         3
     Eigenvalues --   120.78479 457.80030 512.72489
           X            0.99994   0.00948   0.00625
           Y           -0.00981   0.99850   0.05394
           Z           -0.00572  -0.05400   0.99852
 This molecule is an asymmetric top.
 Rotational symmetry number  1.
 Rotational temperatures (Kelvin)      0.71709     0.18920     0.16893
 Rotational constants (GHZ):          14.94179     3.94220     3.51990
    1 imaginary frequencies ignored.
 Zero-point vibrational energy     225250.2 (Joules/Mol)
                                   53.83610 (Kcal/Mol)
 Warning -- explicit consideration of   4 degrees of freedom as
           vibrations may cause significant error
 Vibrational temperatures:    351.02   428.95   704.06   751.37   908.55
          (Kelvin)           1145.31  1237.41  1326.78  1352.67  1467.23
                             1483.78  1576.86  1613.30  1635.88  1645.58
                             1732.68  1862.30  2029.43  2042.01  2094.93
                             4177.70  4325.68  4372.03  4417.89  4435.92
                             5063.36
 
 Zero-point correction=                           0.085793 (Hartree/Particle)
 Thermal correction to Energy=                    0.090571
 Thermal correction to Enthalpy=                  0.091515
 Thermal correction to Gibbs Free Energy=         0.058478
 Sum of electronic and zero-point Energies=            -15.442428
 Sum of electronic and thermal Energies=               -15.437651
 Sum of electronic and thermal Enthalpies=             -15.436706
 Sum of electronic and thermal Free Energies=          -15.469743
 
                     E (Thermal)             CV                S
                      KCal/Mol        Cal/Mol-Kelvin    Cal/Mol-Kelvin
 Total                   56.834             17.367             69.532
 Electronic               0.000              0.000              0.000
 Translational            0.889              2.981             38.657
 Rotational               0.889              2.981             24.853
 Vibrational             55.057             11.405              6.022
 Vibration     1          0.659              1.773              1.774
 Vibration     2          0.691              1.677              1.427
 Vibration     3          0.845              1.274              0.685
 Vibration     4          0.877              1.201              0.605
                       Q            Log10(Q)             Ln(Q)
 Total Bot       0.126507D-26        -26.897886        -61.934670
 Total V=0       0.366606D+13         12.564200         28.930139
 Vib (Bot)       0.910940D-39        -39.040510        -89.894097
 Vib (Bot)    1  0.802242D+00         -0.095695         -0.220345
 Vib (Bot)    2  0.638557D+00         -0.194800         -0.448544
 Vib (Bot)    3  0.339025D+00         -0.469768         -1.081681
 Vib (Bot)    4  0.308457D+00         -0.510806         -1.176173
 Vib (V=0)       0.263982D+01          0.421575          0.970713
 Vib (V=0)    1  0.144530D+01          0.159958          0.368317
 Vib (V=0)    2  0.131102D+01          0.117610          0.270806
 Vib (V=0)    3  0.110410D+01          0.043009          0.099031
 Vib (V=0)    4  0.108749D+01          0.036426          0.083873
 Electronic      0.100000D+01          0.000000          0.000000
 Translational   0.230405D+08          7.362492         16.952764
 Rotational      0.602744D+05          4.780133         11.006662
 ***** Axes restored to original set *****
 -------------------------------------------------------------------
 Center     Atomic                   Forces (Hartrees/Bohr)
 Number     Number              X              Y              Z
 -------------------------------------------------------------------
      1        6           0.000032502   -0.000059697   -0.000013668
      2        6           0.000017905   -0.000035039    0.000012706
      3        6          -0.000017677    0.000184445    0.000055922
      4        1           0.000002424   -0.000002843   -0.000003701
      5        1           0.000006972   -0.000002103   -0.000001343
      6        1          -0.000017766    0.000044102   -0.000000523
      7        1          -0.000003798   -0.000032471    0.000006853
      8        1          -0.000000524   -0.000065485   -0.000024654
      9        6          -0.000014034   -0.000054361   -0.000037492
     10        8          -0.000004623    0.000021607    0.000002707
     11        1          -0.000001381    0.000001844    0.000003193
 -------------------------------------------------------------------
 Cartesian Forces:  Max     0.000184445 RMS     0.000041706
 Force constants in Cartesian coordinates: 
                1             2             3             4             5 
      1  0.584856D+00
      2 -0.722370D-01  0.502880D+00
      3  0.898282D-01  0.119724D+00  0.384569D+00
      4 -0.224770D+00  0.495755D-01  0.596922D-01  0.516013D+00
      5  0.377115D-01 -0.421697D-01 -0.330644D-01 -0.587948D-01  0.208303D+00
      6  0.907611D-01 -0.558190D-01 -0.766742D-01  0.557746D-01  0.146973D+00
      7 -0.814143D-01  0.416477D-01 -0.337795D-01 -0.664701D-02 -0.276200D-01
      8  0.548998D-01 -0.131319D+00  0.485990D-01 -0.415138D-01 -0.413333D-01
      9 -0.791876D-01  0.824463D-01 -0.995851D-01 -0.636804D-02 -0.504916D-02
     10 -0.199158D+00 -0.597739D-01 -0.108875D+00 -0.239965D-01 -0.534441D-02
     11 -0.624609D-01 -0.657060D-01 -0.435779D-01  0.254336D-02 -0.116167D-02
     12 -0.110184D+00 -0.437876D-01 -0.110145D+00  0.114344D-01  0.635202D-02
     13 -0.426680D-01  0.212446D-01  0.848017D-02 -0.432978D-02  0.194588D-01
     14  0.212243D-01 -0.244596D+00 -0.105998D+00  0.292635D-02 -0.141697D-03
     15  0.912880D-02 -0.107683D+00 -0.858330D-01  0.586382D-02 -0.151950D-01
     16 -0.504932D-02  0.142834D-01  0.179682D-01 -0.484677D-01  0.533212D-02
     17 -0.295801D-02 -0.473348D-02 -0.103238D-01 -0.212112D-02 -0.959774D-01
     18  0.575316D-02 -0.581117D-02 -0.618021D-02  0.262240D-01 -0.892048D-01
     19 -0.168850D-02 -0.432557D-02 -0.193381D-01  0.674460D-02  0.105185D-01
     20  0.486258D-02 -0.204583D-02  0.185183D-01  0.579599D-02  0.179563D-03
     21 -0.520018D-02  0.444430D-02 -0.159506D-01 -0.713949D-02 -0.269199D-02
     22  0.238894D-02  0.195927D-01  0.472297D-02 -0.108677D-01 -0.150171D-01
     23 -0.279417D-02 -0.145950D-01 -0.111158D-02 -0.382259D-02 -0.998027D-02
     24  0.318906D-02  0.981106D-02  0.142591D-02  0.608162D-02  0.145365D-01
     25 -0.238837D-01 -0.885606D-02 -0.149006D-01 -0.151953D+00  0.137122D-01
     26  0.194568D-01 -0.561230D-02  0.910759D-02  0.445424D-01 -0.129801D-01
     27 -0.296352D-03 -0.221779D-02  0.103989D-01 -0.113032D+00 -0.417846D-01
     28 -0.745288D-02 -0.186983D-02 -0.271784D-02 -0.432716D-01  0.170751D-01
     29  0.133314D-02  0.733175D-02 -0.272810D-02 -0.468925D-02 -0.493629D-02
     30 -0.401975D-02 -0.929966D-03 -0.192865D-02 -0.360513D-01  0.197499D-01
     31 -0.116010D-02  0.718328D-03 -0.108050D-02 -0.845345D-02  0.296809D-02
     32  0.961876D-03  0.565374D-03  0.854835D-03  0.555799D-02  0.197903D-03
     33  0.227759D-03 -0.177855D-03 -0.964192D-04 -0.247992D-02 -0.621033D-03
                6             7             8             9            10 
      6  0.529518D+00
      7  0.452616D-01  0.151532D+00
      8  0.523460D-01 -0.105519D-01  0.512044D+00
      9 -0.255842D-01  0.327234D-01 -0.182988D-01  0.458261D+00
     10 -0.137142D-01 -0.399761D-02 -0.120813D-02 -0.230401D-02  0.231522D+00
     11 -0.126193D-02  0.137056D-01  0.556512D-02  0.970552D-02  0.648402D-01
     12  0.989193D-02 -0.156748D-01 -0.568777D-02 -0.117857D-01  0.123035D+00
     13  0.128058D-01 -0.208725D-02  0.692643D-02 -0.333019D-03  0.143509D-02
     14 -0.101052D-02  0.531935D-02 -0.213715D-01 -0.432403D-02 -0.988453D-03
     15 -0.116708D-01 -0.303980D-02  0.198167D-01  0.795831D-02 -0.177410D-03
     16  0.145408D-01  0.464180D-03  0.562059D-03 -0.380043D-02  0.905506D-03
     17 -0.904953D-01 -0.273000D-02  0.438745D-02 -0.133894D-01 -0.867840D-03
     18 -0.209703D+00  0.264817D-02 -0.143615D-02  0.615459D-02  0.521815D-04
     19 -0.756437D-02 -0.961716D-02  0.525393D-02  0.159444D-02 -0.365221D-03
     20 -0.365697D-02  0.819026D-04 -0.424213D-01 -0.481545D-01  0.604590D-04
     21  0.528761D-02 -0.231063D-01 -0.613021D-01 -0.292991D+00  0.447014D-03
     22  0.660624D-02 -0.419575D-01 -0.423816D-01 -0.222860D-01  0.209754D-03
     23  0.486820D-02 -0.351159D-01 -0.266496D+00 -0.578518D-01 -0.278083D-04
     24 -0.502471D-02 -0.102377D-01 -0.520282D-01 -0.481391D-01  0.000000D+00
     25 -0.201068D+00  0.157945D-01  0.229373D-01  0.817336D-01 -0.485254D-02
     26 -0.561916D-01  0.103515D-01 -0.224969D-01  0.682775D-01  0.303166D-02
     27 -0.227764D+00  0.210336D-02  0.276959D-01  0.183400D-01  0.261233D-02
     28 -0.268778D-02 -0.215967D-01  0.624548D-02  0.944244D-03 -0.146139D-02
     29  0.452504D-02  0.551093D-02  0.345231D-02 -0.139650D-01 -0.151769D-04
     30  0.109226D-01  0.252540D-02 -0.952010D-02 -0.123071D-01 -0.105045D-02
     31 -0.716295D-03 -0.472690D-03 -0.116953D-02 -0.271652D-02 -0.241618D-03
     32 -0.276499D-03 -0.599249D-03 -0.103734D-04  0.603417D-03  0.293493D-03
     33  0.799776D-03  0.576174D-03 -0.184507D-03 -0.322161D-03 -0.246176D-04
               11            12            13            14            15 
     11  0.715111D-01
     12  0.489848D-01  0.119941D+00
     13 -0.207951D-01 -0.114215D-01  0.499364D-01
     14 -0.101125D-01 -0.679825D-02 -0.296100D-01  0.276472D+00
     15 -0.155986D-01 -0.774182D-02 -0.101342D-01  0.116532D+00  0.986591D-01
     16  0.759647D-03  0.462514D-04 -0.280847D-02 -0.449035D-03  0.328918D-02
     17  0.999881D-05  0.825954D-03  0.271262D-02  0.680244D-03 -0.199256D-02
     18 -0.174684D-03  0.782855D-03  0.259860D-03  0.771100D-03 -0.104117D-02
     19  0.191609D-02 -0.269731D-02  0.550143D-03 -0.175365D-02  0.702384D-03
     20 -0.137706D-02  0.211630D-02  0.740171D-03  0.856957D-03  0.342106D-03
     21  0.142556D-02 -0.160235D-02 -0.146500D-03 -0.570235D-03  0.178999D-02
     22 -0.161571D-03  0.122566D-02 -0.670385D-03  0.380018D-02 -0.326401D-02
     23  0.851151D-03 -0.650807D-03  0.814689D-04 -0.139873D-02  0.267488D-02
     24  0.377294D-03  0.793895D-03  0.318522D-03  0.104737D-02 -0.133345D-02
     25 -0.492907D-03  0.310117D-02  0.832920D-03 -0.594600D-03 -0.185244D-02
     26 -0.564672D-03 -0.685923D-04 -0.474554D-03 -0.850894D-03  0.341901D-04
     27 -0.119045D-03 -0.658167D-03  0.173966D-04  0.361951D-03 -0.967479D-03
     28 -0.576687D-04  0.992548D-03 -0.102500D-03  0.204309D-03 -0.587129D-03
     29  0.990090D-03 -0.106820D-02 -0.122097D-03  0.481948D-03  0.104015D-02
     30  0.242456D-03  0.436654D-03  0.123146D-03  0.152888D-04  0.120730D-03
     31  0.203243D-03  0.142599D-03 -0.881500D-04 -0.787164D-04  0.707835D-04
     32 -0.557534D-05 -0.217826D-03 -0.162440D-03 -0.195295D-04  0.286660D-04
     33 -0.341783D-05  0.867286D-04  0.302284D-04 -0.264146D-04  0.595932D-04
               16            17            18            19            20 
     16  0.450103D-01
     17 -0.138237D-01  0.810670D-01
     18 -0.157097D-01  0.114004D+00  0.239326D+00
     19  0.433219D-03  0.325529D-02 -0.205813D-02  0.329616D-01
     20  0.592919D-03  0.237287D-02 -0.103600D-02  0.436416D-02  0.568891D-01
     21 -0.633488D-03 -0.232967D-02  0.208590D-02  0.204906D-01  0.569381D-01
     22 -0.456356D-04 -0.886792D-03  0.545566D-03  0.187334D-02 -0.279847D-02
     23 -0.154232D-03 -0.506844D-03  0.378527D-03 -0.989131D-03 -0.955435D-02
     24  0.130414D-03 -0.989472D-04 -0.316531D-03 -0.459230D-02 -0.290748D-01
     25  0.856843D-02  0.210200D-01 -0.168094D-01 -0.309013D-01 -0.133480D-01
     26 -0.634763D-02  0.181819D-01 -0.252050D-01 -0.216683D-01 -0.758070D-02
     27 -0.198755D-01  0.349782D-02 -0.386691D-01  0.964019D-02  0.202201D-02
     28  0.583873D-03 -0.369112D-02 -0.192566D-02 -0.107861D-04 -0.602627D-03
     29 -0.117054D-02 -0.663441D-02  0.806191D-02  0.395794D-02  0.291827D-02
     30  0.394497D-02  0.114014D-02  0.672113D-02  0.344928D-02  0.172535D-02
     31  0.405592D-03  0.906809D-04  0.102002D-02  0.201075D-04  0.250945D-03
     32  0.414981D-03  0.115267D-02 -0.348040D-03 -0.529215D-03 -0.237520D-03
     33  0.991949D-04 -0.838561D-03  0.839379D-03  0.373247D-03  0.260078D-03
               21            22            23            24            25 
     21  0.313136D+00
     22 -0.256266D-02  0.402188D-01
     23 -0.659216D-02  0.437004D-01  0.302659D+00
     24 -0.102236D-01  0.116910D-01  0.546462D-01  0.634300D-01
     25  0.179718D-01  0.982102D-02 -0.622938D-03 -0.635413D-02  0.364332D+00
     26  0.136723D-01 -0.864648D-02 -0.193791D-02  0.362208D-03 -0.162232D+00
     27  0.582918D-03  0.482828D-02  0.369271D-02 -0.138319D-02  0.899747D-01
     28  0.241914D-04 -0.660358D-03 -0.287891D-03 -0.252106D-03 -0.160380D+00
     29 -0.340144D-02  0.317261D-02  0.116125D-02  0.523987D-03  0.112336D+00
     30 -0.171095D-02 -0.185233D-02 -0.237949D-03  0.857807D-03  0.481776D-01
     31 -0.145066D-03 -0.310266D-03  0.327918D-04  0.263918D-04 -0.273776D-01
     32  0.407329D-03 -0.373916D-03 -0.201987D-03 -0.102603D-03  0.161412D-01
     33 -0.403460D-03  0.345360D-03  0.183806D-03 -0.870446D-04  0.252051D-04
               26            27            28            29            30 
     26  0.153354D+00
     27  0.253938D-01  0.297249D+00
     28  0.116640D+00  0.381856D-01  0.427521D+00
     29 -0.118285D+00 -0.350853D-01 -0.848461D-01  0.150540D+00
     30 -0.468708D-01 -0.687216D-01  0.168896D+00  0.109857D+00  0.317067D+00
     31  0.534666D-02 -0.141583D-01 -0.193168D+00 -0.354675D-01 -0.184142D+00
     32 -0.122687D-02  0.165425D-01 -0.488097D-01 -0.370197D-01 -0.751710D-01
     33  0.114884D-01  0.115924D-01 -0.200872D+00 -0.677598D-01 -0.251458D+00
               31            32            33 
     31  0.230846D+00
     32  0.271050D-01  0.368057D-01
     33  0.201699D+00  0.576793D-01  0.238989D+00
 Leave Link  716 at Tue May 29 05:57:16 2018, MaxMem=   402653184 cpu:         0.5
 (Enter /sob/g09/l103.exe)

 GradGradGradGradGradGradGradGradGradGradGradGradGradGradGradGradGradGrad
 Berny optimization.
 Search for a local minimum.
 Step number   1 out of a maximum of    2
 All quantities printed in internal units (Hartrees-Bohrs-Radians)
 Second derivative matrix not updated -- analytic derivatives used.
 ITU=  0
     Eigenvalues ---   -0.11527   0.00641   0.01157   0.02045   0.02683
     Eigenvalues ---    0.02790   0.03700   0.04901   0.05560   0.06988
     Eigenvalues ---    0.08831   0.09259   0.11451   0.13336   0.14237
     Eigenvalues ---    0.18843   0.19720   0.29006   0.33226   0.49316
     Eigenvalues ---    0.61592   0.65975   0.66918   0.79921   0.85990
     Eigenvalues ---    0.91944   0.96773
 Eigenvalue     1 is  -1.15D-01 should be greater than     0.000000 Eigenvector:
                          Y9        X9        Z2        Z6        Z3
   1                    0.41442   0.38308   0.33737   0.30316  -0.29396
                          Z7        Y6        X7        X3        Y2
   1                   -0.29154  -0.24547   0.21758  -0.20526  -0.18847
 Angle between quadratic step and forces=  65.23 degrees.
 Linear search not attempted -- first point.
 TrRot=  0.000032 -0.000020  0.000017 -0.000006 -0.000002 -0.000006
 Variable       Old X    -DE/DX   Delta X   Delta X   Delta X     New X
                                 (Linear)    (Quad)   (Total)
    X1        2.74508   0.00003   0.00000   0.00016   0.00018   2.74526
    Y1       -1.59484  -0.00006   0.00000  -0.00002  -0.00007  -1.59490
    Z1       -0.11883  -0.00001   0.00000   0.00004   0.00006  -0.11877
    X2        0.26704   0.00002   0.00000   0.00005   0.00007   0.26711
    Y2       -0.99418  -0.00004   0.00000  -0.00038  -0.00040  -0.99458
    Z2        1.00183   0.00001   0.00000  -0.00008  -0.00007   1.00176
    X3        1.39016  -0.00002   0.00000  -0.00036  -0.00032   1.38984
    Y3        0.32082   0.00018   0.00000   0.00024   0.00021   0.32102
    Z3       -1.75266   0.00006   0.00000   0.00039   0.00041  -1.75225
    X4        4.38627   0.00000   0.00000   0.00012   0.00014   4.38641
    Y4       -1.00322   0.00000   0.00000   0.00021   0.00014  -1.00308
    Z4        0.94829   0.00000   0.00000  -0.00007  -0.00004   0.94825
    X5        2.97986   0.00001   0.00000   0.00040   0.00040   2.98025
    Y5       -3.41885   0.00000   0.00000   0.00021   0.00016  -3.41869
    Z5       -1.00871   0.00000   0.00000  -0.00030  -0.00028  -1.00899
    X6        0.11820  -0.00002   0.00000  -0.00047  -0.00045   0.11775
    Y6       -0.03519   0.00004   0.00000   0.00031   0.00029  -0.03490
    Z6        2.82230   0.00000   0.00000  -0.00035  -0.00033   2.82197
    X7        1.29128   0.00000   0.00000   0.00004   0.00008   1.29136
    Y7       -0.04539  -0.00003   0.00000  -0.00075  -0.00078  -0.04617
    Z7       -3.75881   0.00001   0.00000   0.00044   0.00046  -3.75835
    X8        1.73196   0.00000   0.00000  -0.00071  -0.00065   1.73131
    Y8        2.30151  -0.00007   0.00000   0.00009   0.00005   2.30156
    Z8       -1.33915  -0.00002   0.00000  -0.00024  -0.00022  -1.33938
    X9       -1.55749  -0.00001   0.00000  -0.00017  -0.00014  -1.55763
    Y9       -1.08169  -0.00005   0.00000  -0.00054  -0.00054  -1.08224
    Z9       -0.92246  -0.00004   0.00000  -0.00022  -0.00021  -0.92267
   X10       -3.65054   0.00000   0.00000   0.00041   0.00045  -3.65009
   Y10        0.41737   0.00002   0.00000   0.00040   0.00042   0.41779
   Z10       -0.40911   0.00000   0.00000   0.00000   0.00001  -0.40909
   X11       -4.88972   0.00000   0.00000   0.00020   0.00024  -4.88948
   Y11        0.13814   0.00000   0.00000   0.00049   0.00053   0.13866
   Z11       -1.71641   0.00000   0.00000   0.00019   0.00020  -1.71621
         Item               Value     Threshold  Converged?
 Maximum Force            0.000184     0.000450     YES
 RMS     Force            0.000042     0.000300     YES
 Maximum Displacement     0.000780     0.001800     YES
 RMS     Displacement     0.000331     0.001200     YES
 Predicted change in Energy=-1.403132D-07
 Optimization completed.
    -- Stationary point found.
 GradGradGradGradGradGradGradGradGradGradGradGradGradGradGradGradGradGrad

 Leave Link  103 at Tue May 29 05:57:16 2018, MaxMem=   402653184 cpu:         0.0
 (Enter /sob/g09/l9999.exe)
 1\1\GINC-192\Freq\RExternal='./xtb.sh'\ZDO\C4H6O1\ROOT\29-May-2018\0\\
 #P freq geom=allcheck external='./xtb.sh'\\Title Card Required\\0,1\C,
 1.4526332546,-0.8439513842,-0.0628834687\C,0.1413117486,-0.5260965805,
 0.5301447023\C,0.7356418303,0.1697700785,-0.9274670231\H,2.3211117432,
 -0.5308813462,0.5018137379\H,1.5768720139,-1.8091776562,-0.5337864099\
 H,0.0625461716,-0.0186243158,1.4934988731\H,0.6833150375,-0.0240206746
 ,-1.989079136\H,0.9165114506,1.2179047247,-0.7086501547\C,-0.824188299
 4,-0.5724082678,-0.4881441224\O,-1.9317806318,0.2208620068,-0.21648972
 19\H,-2.5875279091,0.0730994053,-0.9082869965\\Version=ES64L-G09RevD.0
 1\HF=-15.5282213\RMSD=0.000e+00\RMSF=4.171e-05\ZeroPoint=0.0857933\The
 rmal=0.0905707\Dipole=0.,0.,0.\PG=C01 [X(C4H6O1)]\NImag=1\\0.58485588,
 -0.07223696,0.50288041,0.08982822,0.11972441,0.38456855,-0.22477046,0.
 04957554,0.05969217,0.51601257,0.03771153,-0.04216965,-0.03306438,-0.0
 5879483,0.20830293,0.09076109,-0.05581898,-0.07667416,0.05577460,0.146
 97254,0.52951830,-0.08141431,0.04164774,-0.03377947,-0.00664701,-0.027
 61999,0.04526157,0.15153154,0.05489983,-0.13131924,0.04859903,-0.04151
 382,-0.04133330,0.05234597,-0.01055194,0.51204373,-0.07918765,0.082446
 28,-0.09958512,-0.00636804,-0.00504916,-0.02558417,0.03272340,-0.01829
 878,0.45826141,-0.19915752,-0.05977395,-0.10887529,-0.02399651,-0.0053
 4441,-0.01371419,-0.00399761,-0.00120813,-0.00230401,0.23152205,-0.062
 46092,-0.06570604,-0.04357794,0.00254336,-0.00116167,-0.00126193,0.013
 70564,0.00556512,0.00970552,0.06484016,0.07151114,-0.11018417,-0.04378
 763,-0.11014520,0.01143441,0.00635202,0.00989193,-0.01567484,-0.005687
 77,-0.01178570,0.12303516,0.04898481,0.11994117,-0.04266800,0.02124464
 ,0.00848017,-0.00432978,0.01945884,0.01280584,-0.00208725,0.00692643,-
 0.00033302,0.00143509,-0.02079508,-0.01142146,0.04993639,0.02122426,-0
 .24459600,-0.10599839,0.00292635,-0.00014170,-0.00101052,0.00531935,-0
 .02137152,-0.00432403,-0.00098845,-0.01011249,-0.00679825,-0.02961000,
 0.27647171,0.00912880,-0.10768265,-0.08583300,0.00586382,-0.01519504,-
 0.01167078,-0.00303980,0.01981674,0.00795831,-0.00017741,-0.01559862,-
 0.00774182,-0.01013418,0.11653213,0.09865907,-0.00504932,0.01428337,0.
 01796822,-0.04846770,0.00533212,0.01454085,0.00046418,0.00056206,-0.00
 380043,0.00090551,0.00075965,0.00004625,-0.00280847,-0.00044903,0.0032
 8918,0.04501033,-0.00295801,-0.00473348,-0.01032380,-0.00212112,-0.095
 97743,-0.09049529,-0.00273000,0.00438745,-0.01338940,-0.00086784,0.000
 01000,0.00082595,0.00271262,0.00068024,-0.00199256,-0.01382366,0.08106
 705,0.00575316,-0.00581117,-0.00618021,0.02622395,-0.08920477,-0.20970
 257,0.00264817,-0.00143615,0.00615459,0.00005218,-0.00017468,0.0007828
 6,0.00025986,0.00077110,-0.00104117,-0.01570970,0.11400430,0.23932571,
 -0.00168850,-0.00432557,-0.01933806,0.00674460,0.01051850,-0.00756437,
 -0.00961716,0.00525393,0.00159444,-0.00036522,0.00191609,-0.00269731,0
 .00055014,-0.00175365,0.00070238,0.00043322,0.00325529,-0.00205813,0.0
 3296155,0.00486258,-0.00204583,0.01851833,0.00579599,0.00017956,-0.003
 65697,0.00008190,-0.04242128,-0.04815452,0.00006046,-0.00137706,0.0021
 1630,0.00074017,0.00085696,0.00034211,0.00059292,0.00237287,-0.0010360
 0,0.00436416,0.05688908,-0.00520018,0.00444430,-0.01595060,-0.00713949
 ,-0.00269199,0.00528761,-0.02310626,-0.06130208,-0.29299100,0.00044701
 ,0.00142556,-0.00160235,-0.00014650,-0.00057023,0.00178999,-0.00063349
 ,-0.00232967,0.00208590,0.02049064,0.05693810,0.31313558,0.00238894,0.
 01959275,0.00472297,-0.01086768,-0.01501711,0.00660624,-0.04195752,-0.
 04238163,-0.02228603,0.00020975,-0.00016157,0.00122566,-0.00067039,0.0
 0380018,-0.00326401,-0.00004564,-0.00088679,0.00054557,0.00187334,-0.0
 0279847,-0.00256266,0.04021879,-0.00279417,-0.01459500,-0.00111158,-0.
 00382259,-0.00998027,0.00486820,-0.03511593,-0.26649605,-0.05785180,-0
 .00002781,0.00085115,-0.00065081,0.00008147,-0.00139873,0.00267488,-0.
 00015423,-0.00050684,0.00037853,-0.00098913,-0.00955435,-0.00659216,0.
 04370042,0.30265874,0.00318906,0.00981106,0.00142591,0.00608162,0.0145
 3646,-0.00502471,-0.01023771,-0.05202823,-0.04813906,-0.00000072,0.000
 37729,0.00079389,0.00031852,0.00104737,-0.00133345,0.00013041,-0.00009
 895,-0.00031653,-0.00459230,-0.02907477,-0.01022363,0.01169096,0.05464
 618,0.06343000,-0.02388374,-0.00885606,-0.01490060,-0.15195298,0.01371
 215,-0.20106755,0.01579450,0.02293732,0.08173361,-0.00485254,-0.000492
 91,0.00310117,0.00083292,-0.00059460,-0.00185244,0.00856843,0.02101995
 ,-0.01680942,-0.03090130,-0.01334803,0.01797179,0.00982102,-0.00062294
 ,-0.00635413,0.36433156,0.01945684,-0.00561230,0.00910759,0.04454237,-
 0.01298008,-0.05619156,0.01035155,-0.02249686,0.06827746,0.00303166,-0
 .00056467,-0.00006859,-0.00047455,-0.00085089,0.00003419,-0.00634763,0
 .01818188,-0.02520502,-0.02166835,-0.00758070,0.01367230,-0.00864648,-
 0.00193791,0.00036221,-0.16223218,0.15335352,-0.00029635,-0.00221779,0
 .01039892,-0.11303178,-0.04178456,-0.22776387,0.00210336,0.02769589,0.
 01834002,0.00261233,-0.00011905,-0.00065817,0.00001740,0.00036195,-0.0
 0096748,-0.01987547,0.00349782,-0.03866908,0.00964019,0.00202201,0.000
 58292,0.00482828,0.00369271,-0.00138319,0.08997473,0.02539384,0.297249
 15,-0.00745288,-0.00186983,-0.00271784,-0.04327159,0.01707510,-0.00268
 778,-0.02159668,0.00624548,0.00094424,-0.00146139,-0.00005767,0.000992
 55,-0.00010250,0.00020431,-0.00058713,0.00058387,-0.00369112,-0.001925
 66,-0.00001079,-0.00060263,0.00002419,-0.00066036,-0.00028789,-0.00025
 211,-0.16038028,0.11664013,0.03818564,0.42752070,0.00133314,0.00733175
 ,-0.00272810,-0.00468925,-0.00493629,0.00452504,0.00551093,0.00345231,
 -0.01396498,-0.00001518,0.00099009,-0.00106820,-0.00012210,0.00048195,
 0.00104015,-0.00117054,-0.00663441,0.00806191,0.00395794,0.00291827,-0
 .00340144,0.00317261,0.00116125,0.00052399,0.11233611,-0.11828510,-0.0
 3508528,-0.08484614,0.15053993,-0.00401975,-0.00092997,-0.00192865,-0.
 03605135,0.01974992,0.01092265,0.00252540,-0.00952010,-0.01230712,-0.0
 0105045,0.00024246,0.00043665,0.00012315,0.00001529,0.00012073,0.00394
 497,0.00114014,0.00672113,0.00344928,0.00172535,-0.00171095,-0.0018523
 3,-0.00023795,0.00085781,0.04817764,-0.04687083,-0.06872164,0.16889569
 ,0.10985668,0.31706747,-0.00116010,0.00071833,-0.00108050,-0.00845345,
 0.00296809,-0.00071630,-0.00047269,-0.00116953,-0.00271652,-0.00024162
 ,0.00020324,0.00014260,-0.00008815,-0.00007872,0.00007078,0.00040559,0
 .00009068,0.00102002,0.00002011,0.00025094,-0.00014507,-0.00031027,0.0
 0003279,0.00002639,-0.02737760,0.00534666,-0.01415832,-0.19316811,-0.0
 3546753,-0.18414225,0.23084629,0.00096188,0.00056537,0.00085484,0.0055
 5799,0.00019790,-0.00027650,-0.00059925,-0.00001037,0.00060342,0.00029
 349,-0.00000558,-0.00021783,-0.00016244,-0.00001953,0.00002867,0.00041
 498,0.00115267,-0.00034804,-0.00052921,-0.00023752,0.00040733,-0.00037
 392,-0.00020199,-0.00010260,0.01614118,-0.00122687,0.01654245,-0.04880
 973,-0.03701975,-0.07517099,0.02710504,0.03680566,0.00022776,-0.000177
 85,-0.00009642,-0.00247992,-0.00062103,0.00079978,0.00057617,-0.000184
 51,-0.00032216,-0.00002462,-0.00000342,0.00008673,0.00003023,-0.000026
 41,0.00005959,0.00009919,-0.00083856,0.00083938,0.00037325,0.00026008,
 -0.00040346,0.00034536,0.00018381,-0.00008704,0.00002521,0.01148841,0.
 01159242,-0.20087179,-0.06775977,-0.25145806,0.20169916,0.05767925,0.2
 3898925\\-0.00003250,0.00005970,0.00001367,-0.00001791,0.00003504,-0.0
 0001271,0.00001768,-0.00018444,-0.00005592,-0.00000242,0.00000284,0.00
 000370,-0.00000697,0.00000210,0.00000134,0.00001777,-0.00004410,0.0000
 0052,0.00000380,0.00003247,-0.00000685,0.00000052,0.00006548,0.0000246
 5,0.00001403,0.00005436,0.00003749,0.00000462,-0.00002161,-0.00000271,
 0.00000138,-0.00000184,-0.00000319\\\@


 "MATHEMATICS IS THE ART OF GIVING THE SAME NAME
 TO DIFFERENT THINGS."
                    - H. POINCARE
 Job cpu time:       0 days  0 hours  0 minutes  3.3 seconds.
 File lengths (MBytes):  RWF=      5 Int=      0 D2E=      0 Chk=      3 Scr=      1
 Normal termination of Gaussian 09 at Tue May 29 05:57:17 2018.
