 Entering Gaussian System, Link 0=g09
 Initial command:
 /sob/g09/l1.exe "/sob/g09/scratch/Gau-33836.inp" -scrdir="/sob/g09/scratch/"
 Default is to use a total of   4 processors:
                                4 via shared-memory
                                1 via Linda
 Entering Link 1 = /sob/g09/l1.exe PID=     33838.
  
 Copyright (c) 1988,1990,1992,1993,1995,1998,2003,2009,2013,
            Gaussian, Inc.  All Rights Reserved.
  
 This is part of the Gaussian(R) 09 program.  It is based on
 the Gaussian(R) 03 system (copyright 2003, Gaussian, Inc.),
 the Gaussian(R) 98 system (copyright 1998, Gaussian, Inc.),
 the Gaussian(R) 94 system (copyright 1995, Gaussian, Inc.),
 the Gaussian 92(TM) system (copyright 1992, Gaussian, Inc.),
 the Gaussian 90(TM) system (copyright 1990, Gaussian, Inc.),
 the Gaussian 88(TM) system (copyright 1988, Gaussian, Inc.),
 the Gaussian 86(TM) system (copyright 1986, Carnegie Mellon
 University), and the Gaussian 82(TM) system (copyright 1983,
 Carnegie Mellon University). Gaussian is a federally registered
 trademark of Gaussian, Inc.
  
 This software contains proprietary and confidential information,
 including trade secrets, belonging to Gaussian, Inc.
  
 This software is provided under written license and may be
 used, copied, transmitted, or stored only in accord with that
 written license.
  
 The following legend is applicable only to US Government
 contracts under FAR:
  
                    RESTRICTED RIGHTS LEGEND
  
 Use, reproduction and disclosure by the US Government is
 subject to restrictions as set forth in subparagraphs (a)
 and (c) of the Commercial Computer Software - Restricted
 Rights clause in FAR 52.227-19.
  
 Gaussian, Inc.
 340 Quinnipiac St., Bldg. 40, Wallingford CT 06492
  
  
 ---------------------------------------------------------------
 Warning -- This program may not be used in any manner that
 competes with the business of Gaussian, Inc. or will provide
 assistance to any competitor of Gaussian, Inc.  The licensee
 of this program is prohibited from giving any competitor of
 Gaussian, Inc. access to this program.  By using this program,
 the user acknowledges that Gaussian, Inc. is engaged in the
 business of creating and licensing software in the field of
 computational chemistry and represents and warrants to the
 licensee that it is not a competitor of Gaussian, Inc. and that
 it will not use this program in any manner prohibited above.
 ---------------------------------------------------------------
  

 Cite this work as:
 Gaussian 09, Revision D.01,
 M. J. Frisch, G. W. Trucks, H. B. Schlegel, G. E. Scuseria, 
 M. A. Robb, J. R. Cheeseman, G. Scalmani, V. Barone, B. Mennucci, 
 G. A. Petersson, H. Nakatsuji, M. Caricato, X. Li, H. P. Hratchian, 
 A. F. Izmaylov, J. Bloino, G. Zheng, J. L. Sonnenberg, M. Hada, 
 M. Ehara, K. Toyota, R. Fukuda, J. Hasegawa, M. Ishida, T. Nakajima, 
 Y. Honda, O. Kitao, H. Nakai, T. Vreven, J. A. Montgomery, Jr., 
 J. E. Peralta, F. Ogliaro, M. Bearpark, J. J. Heyd, E. Brothers, 
 K. N. Kudin, V. N. Staroverov, T. Keith, R. Kobayashi, J. Normand, 
 K. Raghavachari, A. Rendell, J. C. Burant, S. S. Iyengar, J. Tomasi, 
 M. Cossi, N. Rega, J. M. Millam, M. Klene, J. E. Knox, J. B. Cross, 
 V. Bakken, C. Adamo, J. Jaramillo, R. Gomperts, R. E. Stratmann, 
 O. Yazyev, A. J. Austin, R. Cammi, C. Pomelli, J. W. Ochterski, 
 R. L. Martin, K. Morokuma, V. G. Zakrzewski, G. A. Voth, 
 P. Salvador, J. J. Dannenberg, S. Dapprich, A. D. Daniels, 
 O. Farkas, J. B. Foresman, J. V. Ortiz, J. Cioslowski, 
 and D. J. Fox, Gaussian, Inc., Wallingford CT, 2013.
 
 ******************************************
 Gaussian 09:  ES64L-G09RevD.01 24-Apr-2013
                29-May-2018 
 ******************************************
 %oldchk=mol.chk
 Copying data from "mol.chk" to current chk file "/sob/g09/scratch/Gau-33838.chk".
 -------------------------------------------------------------
 #P IRC(maxpoints=20,calcfc) geom=allcheck external='./xtb.sh'
 -------------------------------------------------------------
 1/6=10,10=4,14=-1,18=10,26=1,29=7,38=1,42=20,44=3/1,23;
 2/12=2,29=1,40=1/2;
 3/11=9,14=-4,16=1,25=1,30=1,41=9900000,43=2,71=2,140=1/1;
 4/20=17,22=1002,24=3,113=1,114=1/2;
 6/7=2,8=2,9=2,10=2/1;
 7/25=1,44=-1/16;
 1/6=10,10=4,14=-1,18=10,26=1,42=20,44=3/23(2);
 2/29=1/2;
 99/5=20/99;
 2/29=1/2;
 3/11=9,14=-2,16=1,25=1,30=1,41=9900000,43=2,71=2,140=1/1;
 4/16=2,20=17,22=1002,24=3,113=1,114=1/2;
 7/44=-1/16;
 1/6=10,14=-1,18=10,26=1,42=20,44=3/23(-4);
 2/29=1/2;
 6/7=2,8=2,9=2,10=2/1;
 99/5=20/99;
 Leave Link    1 at Tue May 29 06:03:16 2018, MaxMem=   402653184 cpu:         0.3
 (Enter /sob/g09/l101.exe)
 Structure from the checkpoint file:  "/sob/g09/scratch/Gau-33838.chk"
 -------------------
 Title Card Required
 -------------------
 Charge =  0 Multiplicity = 1
 No Z-Matrix found in file; cartesian coordinates used.
  C                                                 1.452633254623     -0.843951384231     -0.062883468698
  C                                                 0.141311748568     -0.526096580542      0.530144702308
  C                                                 0.735641830294      0.169770078453     -0.927467023149
  H                                                 2.321111743233     -0.530881346182      0.501813737877
  H                                                 1.576872013911     -1.809177656209     -0.533786409934
  H                                                 0.062546171560     -0.018624315751      1.493498873130
  H                                                 0.683315037472     -0.024020674551     -1.989079136006
  H                                                 0.916511450593      1.217904724706     -0.708650154672
  C                                                -0.824188299406     -0.572408267839     -0.488144122449
  O                                                -1.931780631793      0.220862006829     -0.216489721926
  H                                                -2.587527909055      0.073099405317     -0.908286996481
 Recover connectivity data from disk.
 NAtoms=     11 NQM=       11 NQMF=       0 NMMI=      0 NMMIF=      0
                NMic=       0 NMicF=      0.
                    Isotopes and Nuclear Properties:
 (Nuclear quadrupole moments (NQMom) in fm**2, nuclear magnetic moments (NMagM)
  in nuclear magnetons)

  Atom         1           2           3           4           5           6           7           8           9          10
 IAtWgt=          12          12          12           1           1           1           1           1          12          16
 AtmWgt=  12.0000000  12.0000000  12.0000000   1.0078250   1.0078250   1.0078250   1.0078250   1.0078250  12.0000000  15.9949146
 NucSpn=           0           0           0           1           1           1           1           1           0           0
 AtZEff=  -3.6000000  -3.6000000  -3.6000000  -1.0000000  -1.0000000  -1.0000000  -1.0000000  -1.0000000  -3.6000000  -5.6000000
 NQMom=    0.0000000   0.0000000   0.0000000   0.0000000   0.0000000   0.0000000   0.0000000   0.0000000   0.0000000   0.0000000
 NMagM=    0.0000000   0.0000000   0.0000000   2.7928460   2.7928460   2.7928460   2.7928460   2.7928460   0.0000000   0.0000000
 AtZNuc=   6.0000000   6.0000000   6.0000000   1.0000000   1.0000000   1.0000000   1.0000000   1.0000000   6.0000000   8.0000000

  Atom        11
 IAtWgt=           1
 AtmWgt=   1.0078250
 NucSpn=           1
 AtZEff=  -1.0000000
 NQMom=    0.0000000
 NMagM=    2.7928460
 AtZNuc=   1.0000000
 Leave Link  101 at Tue May 29 06:03:16 2018, MaxMem=   402653184 cpu:         0.2
 (Enter /sob/g09/l123.exe)
 IRC-IRC-IRC-IRC-IRC-IRC-IRC-IRC-IRC-IRC-IRC-IRC-IRC-IRC-IRC-IRC-IRC-IRC
 ------------------------------------------------------------------------
 INPUT DATA FOR L123
 ------------------------------------------------------------------------
 GENERAL PARAMETERS:
 Follow reaction path in both directions.
 Maximum points per path      =  20
 Step size                    =   0.100 bohr
 Integration scheme           = HPC                                 
    Redo corrector integration= Yes                                 
    DWI Weight Power          =  2
    DWI will use Hessian update vectors when possible.
    Max correction cycles     =  10
 Initial Hessian              = CalcFC
 Hessian evaluation           = All updating
 Hessian updating method      = Bofill                              
 ------------------------------------------------------------------------
 IRC-IRC-IRC-IRC-IRC-IRC-IRC-IRC-IRC-IRC-IRC-IRC-IRC-IRC-IRC-IRC-IRC-IRC
 Leave Link  123 at Tue May 29 06:03:16 2018, MaxMem=   402653184 cpu:         0.0
 (Enter /sob/g09/l202.exe)
                          Input orientation:                          
 ---------------------------------------------------------------------
 Center     Atomic      Atomic             Coordinates (Angstroms)
 Number     Number       Type             X           Y           Z
 ---------------------------------------------------------------------
      1          6           0        1.452633   -0.843951   -0.062883
      2          6           0        0.141312   -0.526097    0.530145
      3          6           0        0.735642    0.169770   -0.927467
      4          1           0        2.321112   -0.530881    0.501814
      5          1           0        1.576872   -1.809178   -0.533786
      6          1           0        0.062546   -0.018624    1.493499
      7          1           0        0.683315   -0.024021   -1.989079
      8          1           0        0.916511    1.217905   -0.708650
      9          6           0       -0.824188   -0.572408   -0.488144
     10          8           0       -1.931781    0.220862   -0.216490
     11          1           0       -2.587528    0.073099   -0.908287
 ---------------------------------------------------------------------
                    Distance matrix (angstroms):
                    1          2          3          4          5
     1  C    0.000000
     2  C    1.473865   0.000000
     3  C    1.513014   1.721073   0.000000
     4  H    1.082197   2.179989   2.246658   0.000000
     5  H    1.081132   2.199791   2.186067   1.805658   0.000000
     6  H    2.244066   1.091688   2.519846   2.519318   3.099863
     7  H    2.230329   2.625326   1.080423   3.023877   2.470447
     8  H    2.226138   2.275321   1.085901   2.548799   3.103205
     9  C    2.332059   1.404011   1.782387   3.297674   2.701254
    10  O    3.551293   2.326612   2.761022   4.378147   4.066003
    11  H    4.228308   3.142402   3.324631   5.142754   4.585351
                    6          7          8          9         10
     6  H    0.000000
     7  H    3.537475   0.000000
     8  H    2.666031   1.798960   0.000000
     9  C    2.240510   2.196839   2.506767   0.000000
    10  O    2.637945   3.168717   3.057627   1.389185   0.000000
    11  H    3.577692   3.446151   3.691710   1.924205   0.964584
                   11
    11  H    0.000000
 Symmetry turned off by external request.
 Stoichiometry    C4H6O
 Framework group  C1[X(C4H6O)]
 Deg. of freedom    27
 Full point group                 C1      NOp   1
 Rotational constants (GHZ):     14.9417925      3.9422019      3.5199017
 Leave Link  202 at Tue May 29 06:03:16 2018, MaxMem=   402653184 cpu:         0.0
 (Enter /sob/g09/l301.exe)
 Standard basis: STO-3G (5D, 7F)
 Ernie: Thresh=  0.10000D-02 Tol=  0.10000D-05 Strict=F.
    31 basis functions,    93 primitive gaussians,    31 cartesian basis functions
    19 alpha electrons       19 beta electrons
       nuclear repulsion energy       167.2041390081 Hartrees.
 IExCor=    0 DFT=F Ex=HF Corr=None ExCW=0 ScaHFX=  1.000000
 ScaDFX=  1.000000  1.000000  1.000000  1.000000 ScalE2=  1.000000  1.000000
 IRadAn=      0 IRanWt=     -1 IRanGd=            0 ICorTp=0 IEmpDi=  4
 NAtoms=   11 NActive=   11 NUniq=   11 SFac= 1.00D+00 NAtFMM=   60 NAOKFM=F Big=F
 Integral buffers will be    131072 words long.
 Raffenetti 1 integral format.
 Two-electron integral symmetry is turned off.
 Leave Link  301 at Tue May 29 06:03:16 2018, MaxMem=   402653184 cpu:         0.1
 (Enter /sob/g09/l402.exe)
 External calculation of energy, first and second derivatives.
 Running external command "./xtb.sh R"
         input file       "/sob/g09/scratch/Gau-33838.EIn"
         output file      "/sob/g09/scratch/Gau-33838.EOu"
         message file     "/sob/g09/scratch/Gau-33838.EMs"
         fchk file        "/sob/g09/scratch/Gau-33838.EFC"
         mat. el file     "/sob/g09/scratch/Gau-33838.EUF"
Generating mol.tmp
Generating mol.xyz via genxyz
Running: xtb mol.xyz -chrg 0 -uhf 0 -grad > xtbout
xtb running finished!
Extracting data from xtb outputs via extderi
 Recovered energy= -15.5282213438     dipole=      0.000000000000      0.000000000000      0.000000000000
 NRF= 0 NRA=   0 NVA=   0 HaveQM=F NVQ=       0
 Convergence limit is  0.750E-04 MaxStp= 10000 StMxLn= 3.00D-04 StpMin= 1.00D-06.
 Convergence criteria             0.00011250 0.00007500 0.00045000 0.00030000
  Step  NS  ND Rises OKQ   Scale  Max. Force  RMS Force Max. Disp.  RMS Disp.     Energy   Flag
     1   0   0   F    T  1.00D+00 0.00000000 0.00000000 0.00000000 0.00000000  -15.5282213 ====
 Running external command "./xtb.sh R"
         input file       "/sob/g09/scratch/Gau-33838.EIn"
         output file      "/sob/g09/scratch/Gau-33838.EOu"
         message file     "/sob/g09/scratch/Gau-33838.EMs"
         fchk file        "/sob/g09/scratch/Gau-33838.EFC"
         mat. el file     "/sob/g09/scratch/Gau-33838.EUF"
Generating mol.tmp
Generating mol.xyz via genxyz
Running: xtb mol.xyz -chrg 0 -uhf 0 -hess > xtbout
xtb running finished!
Extracting data from xtb outputs via extderi
 Recovered energy= -15.5282213438     dipole=      0.000000000000      0.000000000000      0.000000000000
 Energy=    -15.5282213     NIter=   0.
 Dipole moment=       0.000000       0.000000       0.000000
 Leave Link  402 at Tue May 29 06:03:18 2018, MaxMem=   402653184 cpu:         4.4
 (Enter /sob/g09/l601.exe)
 Leave Link  601 at Tue May 29 06:03:18 2018, MaxMem=   402653184 cpu:         0.0
 (Enter /sob/g09/l716.exe)
 Dipole        = 0.00000000D+00 0.00000000D+00 0.00000000D+00
 -------------------------------------------------------------------
 Center     Atomic                   Forces (Hartrees/Bohr)
 Number     Number              X              Y              Z
 -------------------------------------------------------------------
      1        6           0.000032506   -0.000059693   -0.000013673
      2        6           0.000017902   -0.000035038    0.000012712
      3        6          -0.000017670    0.000184442    0.000055922
      4        1           0.000002423   -0.000002843   -0.000003700
      5        1           0.000006972   -0.000002105   -0.000001343
      6        1          -0.000017765    0.000044100   -0.000000524
      7        1          -0.000003800   -0.000032471    0.000006853
      8        1          -0.000000525   -0.000065484   -0.000024652
      9        6          -0.000014045   -0.000054352   -0.000037495
     10        8          -0.000004619    0.000021598    0.000002708
     11        1          -0.000001380    0.000001845    0.000003192
 -------------------------------------------------------------------
 Cartesian Forces:  Max     0.000184442 RMS     0.000041705
 Force constants in Cartesian coordinates: 
                1             2             3             4             5 
      1  0.584853D+00
      2 -0.722368D-01  0.502877D+00
      3  0.898319D-01  0.119736D+00  0.384572D+00
      4 -0.224771D+00  0.495845D-01  0.596998D-01  0.516023D+00
      5  0.376981D-01 -0.421720D-01 -0.330495D-01 -0.587625D-01  0.208337D+00
      6  0.907672D-01 -0.558293D-01 -0.766715D-01  0.557831D-01  0.146995D+00
      7 -0.814042D-01  0.416472D-01 -0.337918D-01 -0.664761D-02 -0.276169D-01
      8  0.549002D-01 -0.131305D+00  0.486077D-01 -0.415027D-01 -0.413221D-01
      9 -0.791807D-01  0.824618D-01 -0.995987D-01 -0.637743D-02 -0.503836D-02
     10 -0.199157D+00 -0.597751D-01 -0.108877D+00 -0.240005D-01 -0.534440D-02
     11 -0.624282D-01 -0.657011D-01 -0.436192D-01  0.251103D-02 -0.114907D-02
     12 -0.110153D+00 -0.437623D-01 -0.110133D+00  0.114055D-01  0.635879D-02
     13 -0.426768D-01  0.212349D-01  0.848113D-02 -0.432498D-02  0.194548D-01
     14  0.212154D-01 -0.244597D+00 -0.105995D+00  0.292976D-02 -0.150982D-03
     15  0.910221D-02 -0.107720D+00 -0.858419D-01  0.587083D-02 -0.152110D-01
     16 -0.504261D-02  0.142787D-01  0.179698D-01 -0.484749D-01  0.532775D-02
     17 -0.295744D-02 -0.472405D-02 -0.103168D-01 -0.212662D-02 -0.959963D-01
     18  0.575767D-02 -0.581912D-02 -0.618783D-02  0.262181D-01 -0.892197D-01
     19 -0.168851D-02 -0.432189D-02 -0.193376D-01  0.674694D-02  0.105162D-01
     20  0.485062D-02 -0.205968D-02  0.185299D-01  0.580207D-02  0.173009D-03
     21 -0.522661D-02  0.444345D-02 -0.159283D-01 -0.710280D-02 -0.270383D-02
     22  0.238675D-02  0.195872D-01  0.472032D-02 -0.108683D-01 -0.150172D-01
     23 -0.279311D-02 -0.145969D-01 -0.111525D-02 -0.383097D-02 -0.997709D-02
     24  0.318348D-02  0.979777D-02  0.141659D-02  0.607777D-02  0.145370D-01
     25 -0.238978D-01 -0.883006D-02 -0.148883D-01 -0.151955D+00  0.137037D-01
     26  0.194471D-01 -0.563163D-02  0.910370D-02  0.445408D-01 -0.130313D-01
     27 -0.292018D-03 -0.221009D-02  0.104005D-01 -0.113039D+00 -0.418036D-01
     28 -0.744630D-02 -0.189202D-02 -0.272261D-02 -0.432745D-01  0.170657D-01
     29  0.131283D-02  0.733669D-02 -0.270617D-02 -0.468884D-02 -0.491630D-02
     30 -0.401684D-02 -0.926587D-03 -0.193017D-02 -0.360514D-01  0.197520D-01
     31 -0.115617D-02  0.723397D-03 -0.108613D-02 -0.845360D-02  0.297466D-02
     32  0.991296D-03  0.573987D-03  0.824821D-03  0.554356D-02  0.205418D-03
     33  0.226964D-03 -0.171820D-03 -0.970421D-04 -0.248440D-02 -0.616917D-03
                6             7             8             9            10 
      6  0.529526D+00
      7  0.452617D-01  0.151543D+00
      8  0.523335D-01 -0.105511D-01  0.512020D+00
      9 -0.255679D-01  0.327621D-01 -0.183103D-01  0.458234D+00
     10 -0.137083D-01 -0.399639D-02 -0.121195D-02 -0.230636D-02  0.231523D+00
     11 -0.123039D-02  0.137281D-01  0.553031D-02  0.970404D-02  0.648411D-01
     12  0.991240D-02 -0.156627D-01 -0.568636D-02 -0.117840D-01  0.123024D+00
     13  0.127931D-01 -0.209441D-02  0.692649D-02 -0.337962D-03  0.143511D-02
     14 -0.101398D-02  0.531435D-02 -0.213589D-01 -0.433093D-02 -0.985995D-03
     15 -0.117005D-01 -0.305994D-02  0.198122D-01  0.795430D-02 -0.168778D-03
     16  0.145443D-01  0.464667D-03  0.558813D-03 -0.381408D-02  0.905792D-03
     17 -0.905151D-01 -0.272983D-02  0.438461D-02 -0.133977D-01 -0.869573D-03
     18 -0.209675D+00  0.265459D-02 -0.143630D-02  0.615329D-02  0.554433D-04
     19 -0.757001D-02 -0.962295D-02  0.525425D-02  0.159999D-02 -0.364520D-03
     20 -0.366330D-02  0.670351D-04 -0.424007D-01 -0.481529D-01  0.625778D-04
     21  0.526397D-02 -0.231159D-01 -0.612641D-01 -0.292949D+00  0.443420D-03
     22  0.659917D-02 -0.419675D-01 -0.423946D-01 -0.222894D-01  0.212986D-03
     23  0.486479D-02 -0.351252D-01 -0.266494D+00 -0.578488D-01 -0.276877D-04
     24 -0.503649D-02 -0.102505D-01 -0.520514D-01 -0.481557D-01  0.532300D-05
     25 -0.201082D+00  0.157988D-01  0.229528D-01  0.817037D-01 -0.485931D-02
     26 -0.562008D-01  0.103403D-01 -0.225001D-01  0.682997D-01  0.303872D-02
     27 -0.227752D+00  0.210241D-02  0.277029D-01  0.183252D-01  0.261201D-02
     28 -0.267964D-02 -0.216018D-01  0.624106D-02  0.957833D-03 -0.146088D-02
     29  0.451574D-02  0.549895D-02  0.347795D-02 -0.139921D-01 -0.212445D-04
     30  0.109147D-01  0.254944D-02 -0.952122D-02 -0.123047D-01 -0.105938D-02
     31 -0.708148D-03 -0.471714D-03 -0.117318D-02 -0.271759D-02 -0.238216D-03
     32 -0.256333D-03 -0.573003D-03 -0.323118D-04  0.605497D-03  0.293527D-03
     33  0.785465D-03  0.550535D-03 -0.186699D-03 -0.307487D-03 -0.204215D-04
               11            12            13            14            15 
     11  0.715164D-01
     12  0.489816D-01  0.119918D+00
     13 -0.207973D-01 -0.114214D-01  0.499393D-01
     14 -0.101073D-01 -0.680880D-02 -0.296034D-01  0.276466D+00
     15 -0.155835D-01 -0.774086D-02 -0.101285D-01  0.116550D+00  0.986783D-01
     16  0.763059D-03  0.502185D-04 -0.281010D-02 -0.445129D-03  0.328746D-02
     17  0.107760D-05  0.816356D-03  0.271496D-02  0.679539D-03 -0.198738D-02
     18 -0.161871D-03  0.793295D-03  0.257465D-03  0.771828D-03 -0.104379D-02
     19  0.190931D-02 -0.269761D-02  0.552158D-03 -0.175656D-02  0.705192D-03
     20 -0.137779D-02  0.211435D-02  0.741512D-03  0.860682D-03  0.341893D-03
     21  0.142589D-02 -0.161443D-02 -0.143262D-03 -0.575359D-03  0.178854D-02
     22 -0.161454D-03  0.122990D-02 -0.670418D-03  0.380262D-02 -0.326403D-02
     23  0.855451D-03 -0.658958D-03  0.843086D-04 -0.140243D-02  0.268368D-02
     24  0.384372D-03  0.795460D-03  0.320766D-03  0.105451D-02 -0.132549D-02
     25 -0.544179D-03  0.307028D-02  0.855442D-03 -0.597919D-03 -0.179913D-02
     26 -0.516044D-03 -0.515566D-04 -0.482125D-03 -0.855097D-03  0.184867D-04
     27 -0.128867D-03 -0.665636D-03  0.213890D-04  0.362026D-03 -0.954386D-03
     28 -0.302999D-04  0.101649D-02 -0.120689D-03  0.204731D-03 -0.621124D-03
     29  0.947127D-03 -0.108416D-02 -0.110344D-03  0.476721D-03  0.105114D-02
     30  0.226865D-03  0.438580D-03  0.117016D-03  0.180743D-04  0.121868D-03
     31  0.208745D-03  0.138759D-03 -0.846023D-04 -0.777958D-04  0.758278D-04
     32  0.000000D+00 -0.218933D-03 -0.163811D-03 -0.105000D-04  0.443360D-04
     33  0.108820D-05  0.803083D-04  0.402700D-04 -0.322225D-04  0.639826D-04
               16            17            18            19            20 
     16  0.450127D-01
     17 -0.138237D-01  0.810814D-01
     18 -0.156984D-01  0.114013D+00  0.239332D+00
     19  0.434781D-03  0.325843D-02 -0.206120D-02  0.329593D-01
     20  0.595594D-03  0.237680D-02 -0.103192D-02  0.436781D-02  0.568900D-01
     21 -0.639031D-03 -0.232381D-02  0.206235D-02  0.204896D-01  0.569235D-01
     22 -0.444683D-04 -0.884365D-03  0.547152D-03  0.187320D-02 -0.279667D-02
     23 -0.151973D-03 -0.504943D-03  0.376760D-03 -0.990143D-03 -0.955804D-02
     24  0.131067D-03 -0.946314D-04 -0.310058D-03 -0.459134D-02 -0.290741D-01
     25  0.855251D-02  0.210103D-01 -0.168464D-01 -0.308971D-01 -0.133354D-01
     26 -0.634084D-02  0.181973D-01 -0.251965D-01 -0.216665D-01 -0.759281D-02
     27 -0.198696D-01  0.350616D-02 -0.386750D-01  0.964113D-02  0.203107D-02
     28  0.589490D-03 -0.368182D-02 -0.190932D-02 -0.568280D-05 -0.599081D-03
     29 -0.118050D-02 -0.664325D-02  0.804773D-02  0.396906D-02  0.293393D-02
     30  0.392806D-02  0.113425D-02  0.670746D-02  0.346124D-02  0.173666D-02
     31  0.412142D-03  0.896714D-04  0.102489D-02  0.123702D-04  0.243894D-03
     32  0.418213D-03  0.114782D-02 -0.344403D-03 -0.539910D-03 -0.245365D-03
     33  0.110121D-03 -0.834834D-03  0.842453D-03  0.360610D-03  0.244845D-03
               21            22            23            24            25 
     21  0.313120D+00
     22 -0.256457D-02  0.402198D-01
     23 -0.659995D-02  0.437091D-01  0.302658D+00
     24 -0.102207D-01  0.116967D-01  0.546617D-01  0.634471D-01
     25  0.180060D-01  0.983273D-02 -0.608252D-03 -0.635154D-02  0.364313D+00
     26  0.136394D-01 -0.864686D-02 -0.194491D-02  0.361275D-03 -0.162198D+00
     27  0.587334D-03  0.483337D-02  0.368678D-02 -0.138279D-02  0.899542D-01
     28  0.000000D+00 -0.658784D-03 -0.297075D-03 -0.247609D-03 -0.160361D+00
     29 -0.337603D-02  0.318178D-02  0.116931D-02  0.527089D-03  0.112350D+00
     30 -0.169920D-02 -0.184515D-02 -0.235167D-03  0.860729D-03  0.481519D-01
     31 -0.147405D-03 -0.315981D-03  0.309679D-04  0.258974D-04 -0.273836D-01
     32  0.410755D-03 -0.379557D-03 -0.204026D-03 -0.103588D-03  0.160974D-01
     33 -0.410397D-03  0.336622D-03  0.184450D-03 -0.886228D-04  0.817855D-04
               26            27            28            29            30 
     26  0.153377D+00
     27  0.254162D-01  0.297247D+00
     28  0.116626D+00  0.381884D-01  0.427514D+00
     29 -0.118310D+00 -0.351057D-01 -0.847952D-01  0.150644D+00
     30 -0.468522D-01 -0.687283D-01  0.168889D+00  0.109897D+00  0.316952D+00
     31  0.534184D-02 -0.141522D-01 -0.193175D+00 -0.355163D-01 -0.184124D+00
     32 -0.119239D-02  0.165432D-01 -0.488418D-01 -0.371154D-01 -0.752294D-01
     33  0.114623D-01  0.115974D-01 -0.200872D+00 -0.677742D-01 -0.251333D+00
               31            32            33 
     31  0.230854D+00
     32  0.271541D-01  0.368719D-01
     33  0.201670D+00  0.577240D-01  0.238867D+00
 Leave Link  716 at Tue May 29 06:03:18 2018, MaxMem=   402653184 cpu:         0.0
 (Enter /sob/g09/l123.exe)
 IRC-IRC-IRC-IRC-IRC-IRC-IRC-IRC-IRC-IRC-IRC-IRC-IRC-IRC-IRC-IRC-IRC-IRC
          ******** Start new reaction path calculation ********
 Current Structure is TS -> form Hessian eigenvectors.
                            Diagonalizing Hessian.
 Supplied step size of   0.1000 bohr.
    Integration on MW PES will use step size of   0.1783 sqrt(amu)*bohr.
 Point Number:   0          Path Number:   1
 Calculating another point on the path.
 Point Number  1 in FORWARD path direction.
 Using LQA Reaction Path Following.
 IRC-IRC-IRC-IRC-IRC-IRC-IRC-IRC-IRC-IRC-IRC-IRC-IRC-IRC-IRC-IRC-IRC-IRC
 Leave Link  123 at Tue May 29 06:03:19 2018, MaxMem=   402653184 cpu:         0.4
 (Enter /sob/g09/l202.exe)
                          Input orientation:                          
 ---------------------------------------------------------------------
 Center     Atomic      Atomic             Coordinates (Angstroms)
 Number     Number       Type             X           Y           Z
 ---------------------------------------------------------------------
      1          6           0        1.596332   -0.577758    0.180213
      2          6           0        0.284335   -0.250850    0.763342
      3          6           0        0.881390    0.442750   -0.674596
      4          1           0        2.463130   -0.267748    0.748684
      5          1           0        1.717609   -1.541439   -0.294159
      6          1           0        0.208883    0.279168    1.715166
      7          1           0        0.803113    0.240094   -1.732210
      8          1           0        1.069433    1.491163   -0.465155
      9          6           0       -0.694535   -0.314545   -0.247927
     10          8           0       -1.791254    0.491159    0.027551
     11          1           0       -2.451295    0.343294   -0.660001
 ---------------------------------------------------------------------
                    Distance matrix (angstroms):
                    1          2          3          4          5
     1  C    0.000000
     2  C    1.472496   0.000000
     3  C    1.511051   1.704471   0.000000
     4  H    1.081944   2.178910   2.243309   0.000000
     5  H    1.080934   2.199591   2.186550   1.807101   0.000000
     6  H    2.239512   1.092054   2.487968   2.512933   3.102942
     7  H    2.226082   2.595753   1.079696   3.027936   2.465391
     8  H    2.230371   2.271606   1.085540   2.551385   3.105809
     9  C    2.345349   1.408868   1.799745   3.311536   2.706630
    10  O    3.555507   2.323797   2.763762   4.381296   4.067809
    11  H    4.235278   3.140474   3.334200   5.148721   4.589751
                    6          7          8          9         10
     6  H    0.000000
     7  H    3.498433   0.000000
     8  H    2.638802   1.800425   0.000000
     9  C    2.241070   2.180291   2.533645   0.000000
    10  O    2.625553   3.144922   3.070227   1.388466   0.000000
    11  H    3.566802   3.428039   3.708246   1.920614   0.964493
                   11
    11  H    0.000000
 Symmetry turned off by external request.
 Stoichiometry    C4H6O
 Framework group  C1[X(C4H6O)]
 Deg. of freedom    27
 Full point group                 C1      NOp   1
 Rotational constants (GHZ):     15.0391519      3.9216282      3.5219242
 Leave Link  202 at Tue May 29 06:03:19 2018, MaxMem=   402653184 cpu:         0.0
 (Enter /sob/g09/l301.exe)
 Standard basis: STO-3G (5D, 7F)
 Ernie: Thresh=  0.10000D-02 Tol=  0.10000D-05 Strict=F.
    31 basis functions,    93 primitive gaussians,    31 cartesian basis functions
    19 alpha electrons       19 beta electrons
       nuclear repulsion energy       167.1958516179 Hartrees.
 IExCor=    0 DFT=F Ex=HF Corr=None ExCW=0 ScaHFX=  1.000000
 ScaDFX=  1.000000  1.000000  1.000000  1.000000 ScalE2=  1.000000  1.000000
 IRadAn=      0 IRanWt=     -1 IRanGd=            0 ICorTp=0 IEmpDi=  4
 NAtoms=   11 NActive=   11 NUniq=   11 SFac= 1.00D+00 NAtFMM=   60 NAOKFM=F Big=F
 Integral buffers will be    131072 words long.
 Raffenetti 1 integral format.
 Two-electron integral symmetry is turned off.
 Leave Link  301 at Tue May 29 06:03:19 2018, MaxMem=   402653184 cpu:         0.1
 (Enter /sob/g09/l402.exe)
 External calculation of energy and first derivatives.
 Running external command "./xtb.sh R"
         input file       "/sob/g09/scratch/Gau-33838.EIn"
         output file      "/sob/g09/scratch/Gau-33838.EOu"
         message file     "/sob/g09/scratch/Gau-33838.EMs"
         fchk file        "/sob/g09/scratch/Gau-33838.EFC"
         mat. el file     "/sob/g09/scratch/Gau-33838.EUF"
Generating mol.tmp
Generating mol.xyz via genxyz
Running: xtb mol.xyz -chrg 0 -uhf 0 -grad > xtbout
xtb running finished!
Extracting data from xtb outputs via extderi
 Recovered energy= -15.5285294395     dipole=      0.000000000000      0.000000000000      0.000000000000
 NRF= 0 NRA=   0 NVA=   0 HaveQM=F NVQ=       0
 Convergence limit is  0.750E-04 MaxStp= 10000 StMxLn= 3.00D-04 StpMin= 1.00D-06.
 Convergence criteria             0.00011250 0.00007500 0.00045000 0.00030000
  Step  NS  ND Rises OKQ   Scale  Max. Force  RMS Force Max. Disp.  RMS Disp.     Energy   Flag
     1   0   0   F    T  1.00D+00 0.00000000 0.00000000 0.00000000 0.00000000  -15.5285294 ====
 Running external command "./xtb.sh R"
         input file       "/sob/g09/scratch/Gau-33838.EIn"
         output file      "/sob/g09/scratch/Gau-33838.EOu"
         message file     "/sob/g09/scratch/Gau-33838.EMs"
         fchk file        "/sob/g09/scratch/Gau-33838.EFC"
         mat. el file     "/sob/g09/scratch/Gau-33838.EUF"
Generating mol.tmp
Generating mol.xyz via genxyz
Running: xtb mol.xyz -chrg 0 -uhf 0 -grad > xtbout
xtb running finished!
Extracting data from xtb outputs via extderi
 Recovered energy= -15.5285294395     dipole=      0.000000000000      0.000000000000      0.000000000000
 Energy=    -15.5285294     NIter=   0.
 Dipole moment=       0.000000       0.000000       0.000000
 Leave Link  402 at Tue May 29 06:03:20 2018, MaxMem=   402653184 cpu:         1.8
 (Enter /sob/g09/l716.exe)
 Dipole        = 0.00000000D+00 0.00000000D+00 0.00000000D+00
 -------------------------------------------------------------------
 Center     Atomic                   Forces (Hartrees/Bohr)
 Number     Number              X              Y              Z
 -------------------------------------------------------------------
      1        6           0.001447501   -0.001192769    0.000107826
      2        6           0.000904270    0.002719485   -0.003977428
      3        6           0.002346418    0.001932468    0.004058458
      4        1           0.000063417   -0.000222847    0.000130887
      5        1           0.000017032   -0.000056770   -0.000092127
      6        1           0.000130339    0.000848549   -0.000966958
      7        1          -0.000742437   -0.000155471    0.000649866
      8        1           0.000453442    0.000010500   -0.000045507
      9        6          -0.004616823   -0.004508784   -0.000633817
     10        8           0.000169712    0.000538472    0.000550540
     11        1          -0.000172872    0.000087168    0.000218260
 -------------------------------------------------------------------
 Cartesian Forces:  Max     0.004616823 RMS     0.001731939
 Leave Link  716 at Tue May 29 06:03:20 2018, MaxMem=   402653184 cpu:         0.0
 (Enter /sob/g09/l123.exe)
 IRC-IRC-IRC-IRC-IRC-IRC-IRC-IRC-IRC-IRC-IRC-IRC-IRC-IRC-IRC-IRC-IRC-IRC
 Pt  1 Step number   1 out of a maximum of  10
 Using modified Bulirsch-Stoer corrector integration.
   Using distance weighted interpolants to fit PES.
 PreDWI: IReCr0= 2 IReCr1= 1 IReCr2= 1 IReCr3= 1
 Modified Bulirsch-Stoer Extrapolation Cycles:
    EPS =    0.000010000000000
    Cycle     1 NS=    48
    Cycle     2 NS=    64 Truncation Error =  0.000566500
    Cycle     3 NS=    96 Truncation Error =  0.000000097
 BS completed in    3 cycles and     208 integration steps.
 Maximum DWI energy   std dev =  0.000002089 at pt    30
 Maximum DWI gradient std dev =  0.061553507 at pt     1
 SUMMARY OF CORRECTOR INTEGRATION:
   Predictor End Point Energy =   -15.528529
   Old End Point Energy       =   -15.528529
   Corrected End Point Energy =   -15.528530
   Predictor End-Start Dist.  =     0.178318
   Old End-Start Dist.        =     0.178318
   New End-Start Dist.        =     0.178279
   New End-Old End Dist.      =     0.003286
 CORRECTOR INTEGRATION CONVERGENCE:
   Recorrection delta-x convergence threshold:    0.010000
   Delta-x Convergence Met
 Point Number:   1          Path Number:   1
                    CURRENT STRUCTURE
                Cartesian Coordinates (Ang):                
 ---------------------------------------------------------------------
 Center     Atomic                     Coordinates (Angstroms)
 Number     Number                        X           Y           Z
 ---------------------------------------------------------------------
      1          6                    1.596368   -0.577774    0.180181
      2          6                    0.284251   -0.250859    0.763302
      3          6                    0.881500    0.442881   -0.674664
      4          1                    2.463196   -0.267855    0.748638
      5          1                    1.717647   -1.541522   -0.294063
      6          1                    0.208211    0.278608    1.714903
      7          1                    0.802885    0.239887   -1.731958
      8          1                    1.069789    1.491046   -0.465542
      9          6                   -0.694609   -0.314467   -0.247681
     10          8                   -1.791210    0.491073    0.027491
     11          1                   -2.451419    0.343557   -0.659969
 ---------------------------------------------------------------------
   CHANGE IN THE REACTION COORDINATE =    0.17828
   NET REACTION COORDINATE UP TO THIS POINT =    0.17828
  # OF POINTS ALONG THE PATH =   1
  # OF STEPS =   1

 Calculating another point on the path.
 Point Number  2 in FORWARD path direction.
 Using LQA Reaction Path Following.
   LQA: T_Est iteration completed in    3 iterations.
 IRC-IRC-IRC-IRC-IRC-IRC-IRC-IRC-IRC-IRC-IRC-IRC-IRC-IRC-IRC-IRC-IRC-IRC
 Leave Link  123 at Tue May 29 06:03:21 2018, MaxMem=   402653184 cpu:         2.0
 (Enter /sob/g09/l202.exe)
                          Input orientation:                          
 ---------------------------------------------------------------------
 Center     Atomic      Atomic             Coordinates (Angstroms)
 Number     Number       Type             X           Y           Z
 ---------------------------------------------------------------------
      1          6           0        1.599635   -0.580541    0.180448
      2          6           0        0.286685   -0.244528    0.753610
      3          6           0        0.887126    0.446987   -0.664706
      4          1           0        2.464766   -0.273846    0.752778
      5          1           0        1.717916   -1.542873   -0.297037
      6          1           0        0.213326    0.306179    1.693825
      7          1           0        0.781792    0.235054   -1.717693
      8          1           0        1.082915    1.495287   -0.465222
      9          6           0       -0.705599   -0.325461   -0.249817
     10          8           0       -1.791128    0.492234    0.028687
     11          1           0       -2.455738    0.345147   -0.654544
 ---------------------------------------------------------------------
                    Distance matrix (angstroms):
                    1          2          3          4          5
     1  C    0.000000
     2  C    1.471481   0.000000
     3  C    1.509227   1.688296   0.000000
     4  H    1.081700   2.178278   2.240046   0.000000
     5  H    1.080771   2.199541   2.187449   1.808404   0.000000
     6  H    2.235717   1.092091   2.456929   2.508182   3.105851
     7  H    2.221937   2.565633   1.079255   3.032261   2.460816
     8  H    2.234491   2.268588   1.084925   2.553990   3.108364
     9  C    2.358877   1.413522   1.818126   3.325519   2.712517
    10  O    3.559656   2.320698   2.766927   4.384497   4.069538
    11  H    4.242660   3.138710   3.344431   5.155101   4.594760
                    6          7          8          9         10
     6  H    0.000000
     7  H    3.459287   0.000000
     8  H    2.613742   1.802095   0.000000
     9  C    2.240789   2.163601   2.561310   0.000000
    10  O    2.612496   3.120240   3.083859   1.387285   0.000000
    11  H    3.555314   3.409400   3.725686   1.917421   0.964441
                   11
    11  H    0.000000
 Symmetry turned off by external request.
 Stoichiometry    C4H6O
 Framework group  C1[X(C4H6O)]
 Deg. of freedom    27
 Full point group                 C1      NOp   1
 Rotational constants (GHZ):     15.1334715      3.9011702      3.5231767
 Leave Link  202 at Tue May 29 06:03:21 2018, MaxMem=   402653184 cpu:         0.0
 (Enter /sob/g09/l301.exe)
 Standard basis: STO-3G (5D, 7F)
 Ernie: Thresh=  0.10000D-02 Tol=  0.10000D-05 Strict=F.
    31 basis functions,    93 primitive gaussians,    31 cartesian basis functions
    19 alpha electrons       19 beta electrons
       nuclear repulsion energy       167.1865688664 Hartrees.
 IExCor=    0 DFT=F Ex=HF Corr=None ExCW=0 ScaHFX=  1.000000
 ScaDFX=  1.000000  1.000000  1.000000  1.000000 ScalE2=  1.000000  1.000000
 IRadAn=      0 IRanWt=     -1 IRanGd=            0 ICorTp=0 IEmpDi=  4
 NAtoms=   11 NActive=   11 NUniq=   11 SFac= 1.00D+00 NAtFMM=   60 NAOKFM=F Big=F
 Integral buffers will be    131072 words long.
 Raffenetti 1 integral format.
 Two-electron integral symmetry is turned off.
 Leave Link  301 at Tue May 29 06:03:21 2018, MaxMem=   402653184 cpu:         0.1
 (Enter /sob/g09/l402.exe)
 External calculation of energy and first derivatives.
 Running external command "./xtb.sh R"
         input file       "/sob/g09/scratch/Gau-33838.EIn"
         output file      "/sob/g09/scratch/Gau-33838.EOu"
         message file     "/sob/g09/scratch/Gau-33838.EMs"
         fchk file        "/sob/g09/scratch/Gau-33838.EFC"
         mat. el file     "/sob/g09/scratch/Gau-33838.EUF"
Generating mol.tmp
Generating mol.xyz via genxyz
Running: xtb mol.xyz -chrg 0 -uhf 0 -grad > xtbout
xtb running finished!
Extracting data from xtb outputs via extderi
 Recovered energy= -15.5293508016     dipole=      0.000000000000      0.000000000000      0.000000000000
 NRF= 0 NRA=   0 NVA=   0 HaveQM=F NVQ=       0
 Convergence limit is  0.750E-04 MaxStp= 10000 StMxLn= 3.00D-04 StpMin= 1.00D-06.
 Convergence criteria             0.00011250 0.00007500 0.00045000 0.00030000
  Step  NS  ND Rises OKQ   Scale  Max. Force  RMS Force Max. Disp.  RMS Disp.     Energy   Flag
     1   0   0   F    T  1.00D+00 0.00000000 0.00000000 0.00000000 0.00000000  -15.5293508 ====
 Running external command "./xtb.sh R"
         input file       "/sob/g09/scratch/Gau-33838.EIn"
         output file      "/sob/g09/scratch/Gau-33838.EOu"
         message file     "/sob/g09/scratch/Gau-33838.EMs"
         fchk file        "/sob/g09/scratch/Gau-33838.EFC"
         mat. el file     "/sob/g09/scratch/Gau-33838.EUF"
Generating mol.tmp
Generating mol.xyz via genxyz
Running: xtb mol.xyz -chrg 0 -uhf 0 -grad > xtbout
xtb running finished!
Extracting data from xtb outputs via extderi
 Recovered energy= -15.5293508016     dipole=      0.000000000000      0.000000000000      0.000000000000
 Energy=    -15.5293508     NIter=   0.
 Dipole moment=       0.000000       0.000000       0.000000
 Leave Link  402 at Tue May 29 06:03:22 2018, MaxMem=   402653184 cpu:         2.2
 (Enter /sob/g09/l716.exe)
 Dipole        = 0.00000000D+00 0.00000000D+00 0.00000000D+00
 -------------------------------------------------------------------
 Center     Atomic                   Forces (Hartrees/Bohr)
 Number     Number              X              Y              Z
 -------------------------------------------------------------------
      1        6           0.002562080   -0.002024576    0.000159099
      2        6           0.001379406    0.005021226   -0.007236044
      3        6           0.004484360    0.003157435    0.006893892
      4        1           0.000104894   -0.000404244    0.000246305
      5        1           0.000019223   -0.000100692   -0.000147158
      6        1           0.000208605    0.001318254   -0.001673937
      7        1          -0.001294333   -0.000173080    0.001192542
      8        1           0.000841136    0.000113399   -0.000065858
      9        6          -0.008302635   -0.007798347   -0.000646271
     10        8           0.000317202    0.000707032    0.000901693
     11        1          -0.000319936    0.000183594    0.000375737
 -------------------------------------------------------------------
 Cartesian Forces:  Max     0.008302635 RMS     0.003056677
 Leave Link  716 at Tue May 29 06:03:22 2018, MaxMem=   402653184 cpu:         0.0
 (Enter /sob/g09/l123.exe)
 IRC-IRC-IRC-IRC-IRC-IRC-IRC-IRC-IRC-IRC-IRC-IRC-IRC-IRC-IRC-IRC-IRC-IRC
 Pt  2 Step number   1 out of a maximum of  10
 Using modified Bulirsch-Stoer corrector integration.
   Using distance weighted interpolants to fit PES.
 PreDWI: IReCr0= 2 IReCr1= 1 IReCr2= 1 IReCr3= 1
 Modified Bulirsch-Stoer Extrapolation Cycles:
    EPS =    0.000010000000000
    Cycle     1 NS=    48
    Cycle     2 NS=    64 Truncation Error =  0.000025172
    Cycle     3 NS=    96 Truncation Error =  0.000000072
 BS completed in    3 cycles and     208 integration steps.
 Maximum DWI energy   std dev =  0.000007635 at pt    71
 Maximum DWI gradient std dev =  0.044379635 at pt    27
 SUMMARY OF CORRECTOR INTEGRATION:
   Predictor End Point Energy =   -15.529351
   Old End Point Energy       =   -15.529351
   Corrected End Point Energy =   -15.529353
   Predictor End-Start Dist.  =     0.178256
   Old End-Start Dist.        =     0.178256
   New End-Start Dist.        =     0.178215
   New End-Old End Dist.      =     0.004768
 CORRECTOR INTEGRATION CONVERGENCE:
   Recorrection delta-x convergence threshold:    0.010000
   Delta-x Convergence Met
 Point Number:   2          Path Number:   1
                    CURRENT STRUCTURE
                Cartesian Coordinates (Ang):                
 ---------------------------------------------------------------------
 Center     Atomic                     Coordinates (Angstroms)
 Number     Number                        X           Y           Z
 ---------------------------------------------------------------------
      1          6                    1.599683   -0.580537    0.180419
      2          6                    0.286537   -0.244429    0.753473
      3          6                    0.887323    0.447039   -0.664820
      4          1                    2.464805   -0.273998    0.752807
      5          1                    1.717923   -1.542968   -0.296880
      6          1                    0.212668    0.304986    1.693515
      7          1                    0.781676    0.235355   -1.717340
      8          1                    1.083267    1.495113   -0.465474
      9          6                   -0.705723   -0.325353   -0.249447
     10          8                   -1.791071    0.492099    0.028616
     11          1                   -2.455959    0.345516   -0.654456
 ---------------------------------------------------------------------
   CHANGE IN THE REACTION COORDINATE =    0.17822
   NET REACTION COORDINATE UP TO THIS POINT =    0.35649
  # OF POINTS ALONG THE PATH =   2
  # OF STEPS =   1

 Calculating another point on the path.
 Point Number  3 in FORWARD path direction.
 Using LQA Reaction Path Following.
   LQA: T_Est iteration completed in    3 iterations.
 IRC-IRC-IRC-IRC-IRC-IRC-IRC-IRC-IRC-IRC-IRC-IRC-IRC-IRC-IRC-IRC-IRC-IRC
 Leave Link  123 at Tue May 29 06:03:22 2018, MaxMem=   402653184 cpu:         1.3
 (Enter /sob/g09/l202.exe)
                          Input orientation:                          
 ---------------------------------------------------------------------
 Center     Atomic      Atomic             Coordinates (Angstroms)
 Number     Number       Type             X           Y           Z
 ---------------------------------------------------------------------
      1          6           0        1.603012   -0.583301    0.180598
      2          6           0        0.288682   -0.237864    0.743499
      3          6           0        0.893534    0.451254   -0.655145
      4          1           0        2.466357   -0.280287    0.757112
      5          1           0        1.718191   -1.544544   -0.299509
      6          1           0        0.216505    0.330190    1.672608
      7          1           0        0.760287    0.231075   -1.702857
      8          1           0        1.097393    1.499169   -0.465561
      9          6           0       -0.717024   -0.336124   -0.250820
     10          8           0       -1.790968    0.492953    0.029700
     11          1           0       -2.460592    0.347786   -0.649053
 ---------------------------------------------------------------------
                    Distance matrix (angstroms):
                    1          2          3          4          5
     1  C    0.000000
     2  C    1.470934   0.000000
     3  C    1.507359   1.672404   0.000000
     4  H    1.081458   2.178131   2.236827   0.000000
     5  H    1.080628   2.199722   2.188549   1.809570   0.000000
     6  H    2.232254   1.091393   2.427233   2.504526   3.107883
     7  H    2.218287   2.535147   1.078858   3.037040   2.457598
     8  H    2.238270   2.265640   1.084263   2.556454   3.110812
     9  C    2.372716   1.417662   1.837754   3.339604   2.718993
    10  O    3.563733   2.317012   2.770794   4.387692   4.071114
    11  H    4.250661   3.136987   3.355726   5.162034   4.600578
                    6          7          8          9         10
     6  H    0.000000
     7  H    3.420422   0.000000
     8  H    2.591186   1.803497   0.000000
     9  C    2.239425   2.147690   2.589695   0.000000
    10  O    2.599151   3.095034   3.098448   1.385430   0.000000
    11  H    3.543623   3.390897   3.744143   1.914772   0.964456
                   11
    11  H    0.000000
 Symmetry turned off by external request.
 Stoichiometry    C4H6O
 Framework group  C1[X(C4H6O)]
 Deg. of freedom    27
 Full point group                 C1      NOp   1
 Rotational constants (GHZ):     15.2277364      3.8808568      3.5234823
 Leave Link  202 at Tue May 29 06:03:22 2018, MaxMem=   402653184 cpu:         0.2
 (Enter /sob/g09/l301.exe)
 Standard basis: STO-3G (5D, 7F)
 Ernie: Thresh=  0.10000D-02 Tol=  0.10000D-05 Strict=F.
    31 basis functions,    93 primitive gaussians,    31 cartesian basis functions
    19 alpha electrons       19 beta electrons
       nuclear repulsion energy       167.1831877363 Hartrees.
 IExCor=    0 DFT=F Ex=HF Corr=None ExCW=0 ScaHFX=  1.000000
 ScaDFX=  1.000000  1.000000  1.000000  1.000000 ScalE2=  1.000000  1.000000
 IRadAn=      0 IRanWt=     -1 IRanGd=            0 ICorTp=0 IEmpDi=  4
 NAtoms=   11 NActive=   11 NUniq=   11 SFac= 1.00D+00 NAtFMM=   60 NAOKFM=F Big=F
 Integral buffers will be    131072 words long.
 Raffenetti 1 integral format.
 Two-electron integral symmetry is turned off.
 Leave Link  301 at Tue May 29 06:03:22 2018, MaxMem=   402653184 cpu:         0.1
 (Enter /sob/g09/l402.exe)
 External calculation of energy and first derivatives.
 Running external command "./xtb.sh R"
         input file       "/sob/g09/scratch/Gau-33838.EIn"
         output file      "/sob/g09/scratch/Gau-33838.EOu"
         message file     "/sob/g09/scratch/Gau-33838.EMs"
         fchk file        "/sob/g09/scratch/Gau-33838.EFC"
         mat. el file     "/sob/g09/scratch/Gau-33838.EUF"
Generating mol.tmp
Generating mol.xyz via genxyz
Running: xtb mol.xyz -chrg 0 -uhf 0 -grad > xtbout
xtb running finished!
Extracting data from xtb outputs via extderi
 Recovered energy= -15.5305494235     dipole=      0.000000000000      0.000000000000      0.000000000000
 NRF= 0 NRA=   0 NVA=   0 HaveQM=F NVQ=       0
 Convergence limit is  0.750E-04 MaxStp= 10000 StMxLn= 3.00D-04 StpMin= 1.00D-06.
 Convergence criteria             0.00011250 0.00007500 0.00045000 0.00030000
  Step  NS  ND Rises OKQ   Scale  Max. Force  RMS Force Max. Disp.  RMS Disp.     Energy   Flag
     1   0   0   F    T  1.00D+00 0.00000000 0.00000000 0.00000000 0.00000000  -15.5305494 ====
 Running external command "./xtb.sh R"
         input file       "/sob/g09/scratch/Gau-33838.EIn"
         output file      "/sob/g09/scratch/Gau-33838.EOu"
         message file     "/sob/g09/scratch/Gau-33838.EMs"
         fchk file        "/sob/g09/scratch/Gau-33838.EFC"
         mat. el file     "/sob/g09/scratch/Gau-33838.EUF"
Generating mol.tmp
Generating mol.xyz via genxyz
Running: xtb mol.xyz -chrg 0 -uhf 0 -grad > xtbout
xtb running finished!
Extracting data from xtb outputs via extderi
 Recovered energy= -15.5305494235     dipole=      0.000000000000      0.000000000000      0.000000000000
 Energy=    -15.5305494     NIter=   0.
 Dipole moment=       0.000000       0.000000       0.000000
 Leave Link  402 at Tue May 29 06:03:23 2018, MaxMem=   402653184 cpu:         1.6
 (Enter /sob/g09/l716.exe)
 Dipole        = 0.00000000D+00 0.00000000D+00 0.00000000D+00
 -------------------------------------------------------------------
 Center     Atomic                   Forces (Hartrees/Bohr)
 Number     Number              X              Y              Z
 -------------------------------------------------------------------
      1        6           0.003335703   -0.002669307    0.000119556
      2        6           0.001592152    0.006666645   -0.009749430
      3        6           0.006356088    0.004146681    0.008707503
      4        1           0.000119215   -0.000541070    0.000342343
      5        1           0.000024853   -0.000135877   -0.000179882
      6        1           0.000198024    0.001681308   -0.001882460
      7        1          -0.001662124   -0.000188226    0.001483630
      8        1           0.001167311    0.000180871   -0.000089700
      9        6          -0.011004496   -0.010053339   -0.000376454
     10        8           0.000287447    0.000647929    0.001155613
     11        1          -0.000414173    0.000264383    0.000469282
 -------------------------------------------------------------------
 Cartesian Forces:  Max     0.011004496 RMS     0.004013651
 Leave Link  716 at Tue May 29 06:03:23 2018, MaxMem=   402653184 cpu:         0.1
 (Enter /sob/g09/l123.exe)
 IRC-IRC-IRC-IRC-IRC-IRC-IRC-IRC-IRC-IRC-IRC-IRC-IRC-IRC-IRC-IRC-IRC-IRC
 Pt  3 Step number   1 out of a maximum of  10
 Using modified Bulirsch-Stoer corrector integration.
   Using distance weighted interpolants to fit PES.
 PreDWI: IReCr0= 2 IReCr1= 1 IReCr2= 1 IReCr3= 1
 Modified Bulirsch-Stoer Extrapolation Cycles:
    EPS =    0.000010000000000
    Cycle     1 NS=    48
    Cycle     2 NS=    64 Truncation Error =  0.000027330
    Cycle     3 NS=    96 Truncation Error =  0.000000075
 BS completed in    3 cycles and     208 integration steps.
 Maximum DWI energy   std dev =  0.000007817 at pt    47
 Maximum DWI gradient std dev =  0.028552539 at pt    28
 SUMMARY OF CORRECTOR INTEGRATION:
   Predictor End Point Energy =   -15.530549
   Old End Point Energy       =   -15.530549
   Corrected End Point Energy =   -15.530551
   Predictor End-Start Dist.  =     0.178269
   Old End-Start Dist.        =     0.178269
   New End-Start Dist.        =     0.178236
   New End-Old End Dist.      =     0.003794
 CORRECTOR INTEGRATION CONVERGENCE:
   Recorrection delta-x convergence threshold:    0.010000
   Delta-x Convergence Met
 Point Number:   3          Path Number:   1
                    CURRENT STRUCTURE
                Cartesian Coordinates (Ang):                
 ---------------------------------------------------------------------
 Center     Atomic                     Coordinates (Angstroms)
 Number     Number                        X           Y           Z
 ---------------------------------------------------------------------
      1          6                    1.603051   -0.583308    0.180577
      2          6                    0.288548   -0.237763    0.743382
      3          6                    0.893683    0.451285   -0.655259
      4          1                    2.466362   -0.280414    0.757155
      5          1                    1.718204   -1.544601   -0.299413
      6          1                    0.216017    0.329234    1.672519
      7          1                    0.760392    0.231443   -1.702526
      8          1                    1.097620    1.498996   -0.465733
      9          6                   -0.717104   -0.336053   -0.250529
     10          8                   -1.790929    0.492850    0.029652
     11          1                   -2.460762    0.348072   -0.648972
 ---------------------------------------------------------------------
   CHANGE IN THE REACTION COORDINATE =    0.17824
   NET REACTION COORDINATE UP TO THIS POINT =    0.53473
  # OF POINTS ALONG THE PATH =   3
  # OF STEPS =   1

 Calculating another point on the path.
 Point Number  4 in FORWARD path direction.
 Using LQA Reaction Path Following.
   LQA: T_Est iteration completed in    3 iterations.
 IRC-IRC-IRC-IRC-IRC-IRC-IRC-IRC-IRC-IRC-IRC-IRC-IRC-IRC-IRC-IRC-IRC-IRC
 Leave Link  123 at Tue May 29 06:03:24 2018, MaxMem=   402653184 cpu:         1.7
 (Enter /sob/g09/l202.exe)
                          Input orientation:                          
 ---------------------------------------------------------------------
 Center     Atomic      Atomic             Coordinates (Angstroms)
 Number     Number       Type             X           Y           Z
 ---------------------------------------------------------------------
      1          6           0        1.606413   -0.586098    0.180667
      2          6           0        0.290378   -0.230909    0.733152
      3          6           0        0.900513    0.455601   -0.645937
      4          1           0        2.467816   -0.287035    0.761692
      5          1           0        1.718464   -1.546376   -0.301779
      6          1           0        0.218687    0.352056    1.652188
      7          1           0        0.739190    0.227904   -1.687935
      8          1           0        1.112720    1.502863   -0.466158
      9          6           0       -0.728670   -0.346630   -0.251166
     10          8           0       -1.790857    0.493394    0.030660
     11          1           0       -2.465647    0.350968   -0.643643
 ---------------------------------------------------------------------
                    Distance matrix (angstroms):
                    1          2          3          4          5
     1  C    0.000000
     2  C    1.470832   0.000000
     3  C    1.505559   1.656939   0.000000
     4  H    1.081223   2.178349   2.233689   0.000000
     5  H    1.080484   2.200219   2.189840   1.810646   0.000000
     6  H    2.229638   1.090695   2.399372   2.501999   3.109881
     7  H    2.215029   2.504716   1.078717   3.042036   2.455296
     8  H    2.241846   2.262864   1.083564   2.558834   3.113166
     9  C    2.386721   1.421524   1.858401   3.353648   2.725879
    10  O    3.567807   2.312930   2.775371   4.390874   4.072654
    11  H    4.259020   3.135254   3.367786   5.169243   4.606905
                    6          7          8          9         10
     6  H    0.000000
     7  H    3.382715   0.000000
     8  H    2.571194   1.804933   0.000000
     9  C    2.237946   2.132841   2.618695   0.000000
    10  O    2.586039   3.070048   3.113939   1.383223   0.000000
    11  H    3.532208   3.372932   3.763386   1.912529   0.964527
                   11
    11  H    0.000000
 Symmetry turned off by external request.
 Stoichiometry    C4H6O
 Framework group  C1[X(C4H6O)]
 Deg. of freedom    27
 Full point group                 C1      NOp   1
 Rotational constants (GHZ):     15.3174808      3.8605680      3.5226974
 Leave Link  202 at Tue May 29 06:03:24 2018, MaxMem=   402653184 cpu:         0.1
 (Enter /sob/g09/l301.exe)
 Standard basis: STO-3G (5D, 7F)
 Ernie: Thresh=  0.10000D-02 Tol=  0.10000D-05 Strict=F.
    31 basis functions,    93 primitive gaussians,    31 cartesian basis functions
    19 alpha electrons       19 beta electrons
       nuclear repulsion energy       167.1739747804 Hartrees.
 IExCor=    0 DFT=F Ex=HF Corr=None ExCW=0 ScaHFX=  1.000000
 ScaDFX=  1.000000  1.000000  1.000000  1.000000 ScalE2=  1.000000  1.000000
 IRadAn=      0 IRanWt=     -1 IRanGd=            0 ICorTp=0 IEmpDi=  4
 NAtoms=   11 NActive=   11 NUniq=   11 SFac= 1.00D+00 NAtFMM=   60 NAOKFM=F Big=F
 Integral buffers will be    131072 words long.
 Raffenetti 1 integral format.
 Two-electron integral symmetry is turned off.
 Leave Link  301 at Tue May 29 06:03:24 2018, MaxMem=   402653184 cpu:         0.1
 (Enter /sob/g09/l402.exe)
 External calculation of energy and first derivatives.
 Running external command "./xtb.sh R"
         input file       "/sob/g09/scratch/Gau-33838.EIn"
         output file      "/sob/g09/scratch/Gau-33838.EOu"
         message file     "/sob/g09/scratch/Gau-33838.EMs"
         fchk file        "/sob/g09/scratch/Gau-33838.EFC"
         mat. el file     "/sob/g09/scratch/Gau-33838.EUF"
Generating mol.tmp
Generating mol.xyz via genxyz
Running: xtb mol.xyz -chrg 0 -uhf 0 -grad > xtbout
xtb running finished!
Extracting data from xtb outputs via extderi
 Recovered energy= -15.5319960260     dipole=      0.000000000000      0.000000000000      0.000000000000
 NRF= 0 NRA=   0 NVA=   0 HaveQM=F NVQ=       0
 Convergence limit is  0.750E-04 MaxStp= 10000 StMxLn= 3.00D-04 StpMin= 1.00D-06.
 Convergence criteria             0.00011250 0.00007500 0.00045000 0.00030000
  Step  NS  ND Rises OKQ   Scale  Max. Force  RMS Force Max. Disp.  RMS Disp.     Energy   Flag
     1   0   0   F    T  1.00D+00 0.00000000 0.00000000 0.00000000 0.00000000  -15.5319960 ====
 Running external command "./xtb.sh R"
         input file       "/sob/g09/scratch/Gau-33838.EIn"
         output file      "/sob/g09/scratch/Gau-33838.EOu"
         message file     "/sob/g09/scratch/Gau-33838.EMs"
         fchk file        "/sob/g09/scratch/Gau-33838.EFC"
         mat. el file     "/sob/g09/scratch/Gau-33838.EUF"
Generating mol.tmp
Generating mol.xyz via genxyz
Running: xtb mol.xyz -chrg 0 -uhf 0 -grad > xtbout
xtb running finished!
Extracting data from xtb outputs via extderi
 Recovered energy= -15.5319960260     dipole=      0.000000000000      0.000000000000      0.000000000000
 Energy=    -15.5319960     NIter=   0.
 Dipole moment=       0.000000       0.000000       0.000000
 Leave Link  402 at Tue May 29 06:03:25 2018, MaxMem=   402653184 cpu:         1.4
 (Enter /sob/g09/l716.exe)
 Dipole        = 0.00000000D+00 0.00000000D+00 0.00000000D+00
 -------------------------------------------------------------------
 Center     Atomic                   Forces (Hartrees/Bohr)
 Number     Number              X              Y              Z
 -------------------------------------------------------------------
      1        6           0.003798445   -0.003093226    0.000044285
      2        6           0.001520436    0.007914148   -0.011459575
      3        6           0.007947423    0.004806018    0.009531358
      4        1           0.000117007   -0.000650375    0.000420686
      5        1           0.000024885   -0.000166584   -0.000189790
      6        1           0.000132000    0.001766868   -0.001937703
      7        1          -0.001851071   -0.000144334    0.001660410
      8        1           0.001433276    0.000220532   -0.000115083
      9        6          -0.012822125   -0.011318157    0.000247225
     10        8           0.000183516    0.000321967    0.001275283
     11        1          -0.000483792    0.000343143    0.000522906
 -------------------------------------------------------------------
 Cartesian Forces:  Max     0.012822125 RMS     0.004632630
 Leave Link  716 at Tue May 29 06:03:25 2018, MaxMem=   402653184 cpu:         0.0
 (Enter /sob/g09/l123.exe)
 IRC-IRC-IRC-IRC-IRC-IRC-IRC-IRC-IRC-IRC-IRC-IRC-IRC-IRC-IRC-IRC-IRC-IRC
 Pt  4 Step number   1 out of a maximum of  10
 Using modified Bulirsch-Stoer corrector integration.
   Using distance weighted interpolants to fit PES.
 PreDWI: IReCr0= 2 IReCr1= 1 IReCr2= 1 IReCr3= 1
 Modified Bulirsch-Stoer Extrapolation Cycles:
    EPS =    0.000010000000000
    Cycle     1 NS=    48
    Cycle     2 NS=    64 Truncation Error =  0.000031279
    Cycle     3 NS=    96 Truncation Error =  0.000000076
 BS completed in    3 cycles and     208 integration steps.
 Maximum DWI energy   std dev =  0.000007135 at pt    47
 Maximum DWI gradient std dev =  0.022785793 at pt    38
 SUMMARY OF CORRECTOR INTEGRATION:
   Predictor End Point Energy =   -15.531996
   Old End Point Energy       =   -15.531996
   Corrected End Point Energy =   -15.531997
   Predictor End-Start Dist.  =     0.178273
   Old End-Start Dist.        =     0.178273
   New End-Start Dist.        =     0.178238
   New End-Old End Dist.      =     0.003331
 CORRECTOR INTEGRATION CONVERGENCE:
   Recorrection delta-x convergence threshold:    0.010000
   Delta-x Convergence Met
 Point Number:   4          Path Number:   1
                    CURRENT STRUCTURE
                Cartesian Coordinates (Ang):                
 ---------------------------------------------------------------------
 Center     Atomic                     Coordinates (Angstroms)
 Number     Number                        X           Y           Z
 ---------------------------------------------------------------------
      1          6                    1.606442   -0.586109    0.180654
      2          6                    0.290257   -0.230808    0.733049
      3          6                    0.900636    0.455619   -0.646054
      4          1                    2.467799   -0.287160    0.761748
      5          1                    1.718472   -1.546410   -0.301716
      6          1                    0.218292    0.351208    1.652270
      7          1                    0.739417    0.228305   -1.687622
      8          1                    1.112918    1.502701   -0.466287
      9          6                   -0.728727   -0.346575   -0.250923
     10          8                   -1.790831    0.493306    0.030623
     11          1                   -2.465792    0.351194   -0.643562
 ---------------------------------------------------------------------
   CHANGE IN THE REACTION COORDINATE =    0.17824
   NET REACTION COORDINATE UP TO THIS POINT =    0.71297
  # OF POINTS ALONG THE PATH =   4
  # OF STEPS =   1

 Calculating another point on the path.
 Point Number  5 in FORWARD path direction.
 Using LQA Reaction Path Following.
   LQA: T_Est iteration completed in    3 iterations.
 IRC-IRC-IRC-IRC-IRC-IRC-IRC-IRC-IRC-IRC-IRC-IRC-IRC-IRC-IRC-IRC-IRC-IRC
 Leave Link  123 at Tue May 29 06:03:26 2018, MaxMem=   402653184 cpu:         2.2
 (Enter /sob/g09/l202.exe)
                          Input orientation:                          
 ---------------------------------------------------------------------
 Center     Atomic      Atomic             Coordinates (Angstroms)
 Number     Number       Type             X           Y           Z
 ---------------------------------------------------------------------
      1          6           0        1.609797   -0.588942    0.180655
      2          6           0        0.291752   -0.223602    0.722577
      3          6           0        0.908158    0.460031   -0.637175
      4          1           0        2.469079   -0.294199    0.766605
      5          1           0        1.718676   -1.548380   -0.303855
      6          1           0        0.219827    0.371397    1.632955
      7          1           0        0.718790    0.225703   -1.673068
      8          1           0        1.129138    1.506371   -0.466982
      9          6           0       -0.740531   -0.356938   -0.250818
     10          8           0       -1.790848    0.493506    0.031582
     11          1           0       -2.470916    0.354661   -0.638339
 ---------------------------------------------------------------------
                    Distance matrix (angstroms):
                    1          2          3          4          5
     1  C    0.000000
     2  C    1.471188   0.000000
     3  C    1.503825   1.642023   0.000000
     4  H    1.081007   2.178916   2.230680   0.000000
     5  H    1.080336   2.201070   2.191291   1.811618   0.000000
     6  H    2.227878   1.089947   2.373846   2.500543   3.111804
     7  H    2.212200   2.474541   1.078816   3.047263   2.453953
     8  H    2.245174   2.260327   1.082878   2.561100   3.115392
     9  C    2.400840   1.425091   1.880129   3.367592   2.733138
    10  O    3.571877   2.308450   2.780826   4.394055   4.074135
    11  H    4.267711   3.133499   3.380717   5.176720   4.613688
                    6          7          8          9         10
     6  H    0.000000
     7  H    3.346637   0.000000
     8  H    2.554359   1.806416   0.000000
     9  C    2.236372   2.119405   2.648454   0.000000
    10  O    2.573348   3.045625   3.130620   1.380642   0.000000
    11  H    3.521243   3.355818   3.783673   1.910701   0.964657
                   11
    11  H    0.000000
 Symmetry turned off by external request.
 Stoichiometry    C4H6O
 Framework group  C1[X(C4H6O)]
 Deg. of freedom    27
 Full point group                 C1      NOp   1
 Rotational constants (GHZ):     15.4014204      3.8403041      3.5206102
 Leave Link  202 at Tue May 29 06:03:26 2018, MaxMem=   402653184 cpu:         0.0
 (Enter /sob/g09/l301.exe)
 Standard basis: STO-3G (5D, 7F)
 Ernie: Thresh=  0.10000D-02 Tol=  0.10000D-05 Strict=F.
    31 basis functions,    93 primitive gaussians,    31 cartesian basis functions
    19 alpha electrons       19 beta electrons
       nuclear repulsion energy       167.1566330468 Hartrees.
 IExCor=    0 DFT=F Ex=HF Corr=None ExCW=0 ScaHFX=  1.000000
 ScaDFX=  1.000000  1.000000  1.000000  1.000000 ScalE2=  1.000000  1.000000
 IRadAn=      0 IRanWt=     -1 IRanGd=            0 ICorTp=0 IEmpDi=  4
 NAtoms=   11 NActive=   11 NUniq=   11 SFac= 1.00D+00 NAtFMM=   60 NAOKFM=F Big=F
 Integral buffers will be    131072 words long.
 Raffenetti 1 integral format.
 Two-electron integral symmetry is turned off.
 Leave Link  301 at Tue May 29 06:03:26 2018, MaxMem=   402653184 cpu:         0.1
 (Enter /sob/g09/l402.exe)
 External calculation of energy and first derivatives.
 Running external command "./xtb.sh R"
         input file       "/sob/g09/scratch/Gau-33838.EIn"
         output file      "/sob/g09/scratch/Gau-33838.EOu"
         message file     "/sob/g09/scratch/Gau-33838.EMs"
         fchk file        "/sob/g09/scratch/Gau-33838.EFC"
         mat. el file     "/sob/g09/scratch/Gau-33838.EUF"
Generating mol.tmp
Generating mol.xyz via genxyz
Running: xtb mol.xyz -chrg 0 -uhf 0 -grad > xtbout
xtb running finished!
Extracting data from xtb outputs via extderi
 Recovered energy= -15.5335852873     dipole=      0.000000000000      0.000000000000      0.000000000000
 NRF= 0 NRA=   0 NVA=   0 HaveQM=F NVQ=       0
 Convergence limit is  0.750E-04 MaxStp= 10000 StMxLn= 3.00D-04 StpMin= 1.00D-06.
 Convergence criteria             0.00011250 0.00007500 0.00045000 0.00030000
  Step  NS  ND Rises OKQ   Scale  Max. Force  RMS Force Max. Disp.  RMS Disp.     Energy   Flag
     1   0   0   F    T  1.00D+00 0.00000000 0.00000000 0.00000000 0.00000000  -15.5335853 ====
 Running external command "./xtb.sh R"
         input file       "/sob/g09/scratch/Gau-33838.EIn"
         output file      "/sob/g09/scratch/Gau-33838.EOu"
         message file     "/sob/g09/scratch/Gau-33838.EMs"
         fchk file        "/sob/g09/scratch/Gau-33838.EFC"
         mat. el file     "/sob/g09/scratch/Gau-33838.EUF"
Generating mol.tmp
Generating mol.xyz via genxyz
Running: xtb mol.xyz -chrg 0 -uhf 0 -grad > xtbout
xtb running finished!
Extracting data from xtb outputs via extderi
 Recovered energy= -15.5335852873     dipole=      0.000000000000      0.000000000000      0.000000000000
 Energy=    -15.5335853     NIter=   0.
 Dipole moment=       0.000000       0.000000       0.000000
 Leave Link  402 at Tue May 29 06:03:26 2018, MaxMem=   402653184 cpu:         1.3
 (Enter /sob/g09/l716.exe)
 Dipole        = 0.00000000D+00 0.00000000D+00 0.00000000D+00
 -------------------------------------------------------------------
 Center     Atomic                   Forces (Hartrees/Bohr)
 Number     Number              X              Y              Z
 -------------------------------------------------------------------
      1        6           0.003968125   -0.003349336   -0.000043316
      2        6           0.001287378    0.008784342   -0.012488666
      3        6           0.009264242    0.005203018    0.009571104
      4        1           0.000093983   -0.000733895    0.000481063
      5        1           0.000017364   -0.000190181   -0.000186876
      6        1           0.000040205    0.001689880   -0.001830740
      7        1          -0.001874904   -0.000050552    0.001745976
      8        1           0.001640517    0.000227284   -0.000138111
      9        6          -0.013874764   -0.011825992    0.001012536
     10        8          -0.000039083   -0.000157556    0.001331938
     11        1          -0.000523063    0.000402987    0.000545091
 -------------------------------------------------------------------
 Cartesian Forces:  Max     0.013874764 RMS     0.004980470
 Leave Link  716 at Tue May 29 06:03:26 2018, MaxMem=   402653184 cpu:         0.1
 (Enter /sob/g09/l123.exe)
 IRC-IRC-IRC-IRC-IRC-IRC-IRC-IRC-IRC-IRC-IRC-IRC-IRC-IRC-IRC-IRC-IRC-IRC
 Pt  5 Step number   1 out of a maximum of  10
 Using modified Bulirsch-Stoer corrector integration.
   Using distance weighted interpolants to fit PES.
 PreDWI: IReCr0= 2 IReCr1= 1 IReCr2= 1 IReCr3= 1
 Modified Bulirsch-Stoer Extrapolation Cycles:
    EPS =    0.000010000000000
    Cycle     1 NS=    48
    Cycle     2 NS=    64 Truncation Error =  0.000034575
    Cycle     3 NS=    96 Truncation Error =  0.000000077
 BS completed in    3 cycles and     208 integration steps.
 Maximum DWI energy   std dev =  0.000005935 at pt    35
 Maximum DWI gradient std dev =  0.019697207 at pt    38
 SUMMARY OF CORRECTOR INTEGRATION:
   Predictor End Point Energy =   -15.533585
   Old End Point Energy       =   -15.533585
   Corrected End Point Energy =   -15.533586
   Predictor End-Start Dist.  =     0.178273
   Old End-Start Dist.        =     0.178273
   New End-Start Dist.        =     0.178235
   New End-Old End Dist.      =     0.002916
 CORRECTOR INTEGRATION CONVERGENCE:
   Recorrection delta-x convergence threshold:    0.010000
   Delta-x Convergence Met
 Point Number:   5          Path Number:   1
                    CURRENT STRUCTURE
                Cartesian Coordinates (Ang):                
 ---------------------------------------------------------------------
 Center     Atomic                     Coordinates (Angstroms)
 Number     Number                        X           Y           Z
 ---------------------------------------------------------------------
      1          6                    1.609813   -0.588953    0.180649
      2          6                    0.291650   -0.223514    0.722490
      3          6                    0.908255    0.460042   -0.637293
      4          1                    2.469039   -0.294312    0.766660
      5          1                    1.718679   -1.548392   -0.303820
      6          1                    0.219505    0.370700    1.633177
      7          1                    0.719128    0.226132   -1.672760
      8          1                    1.129305    1.506212   -0.467082
      9          6                   -0.740569   -0.356899   -0.250618
     10          8                   -1.790831    0.493435    0.031554
     11          1                   -2.471031    0.354826   -0.638255
 ---------------------------------------------------------------------
   CHANGE IN THE REACTION COORDINATE =    0.17824
   NET REACTION COORDINATE UP TO THIS POINT =    0.89120
  # OF POINTS ALONG THE PATH =   5
  # OF STEPS =   1

 Calculating another point on the path.
 Point Number  6 in FORWARD path direction.
 Using LQA Reaction Path Following.
   LQA: T_Est iteration completed in    3 iterations.
 IRC-IRC-IRC-IRC-IRC-IRC-IRC-IRC-IRC-IRC-IRC-IRC-IRC-IRC-IRC-IRC-IRC-IRC
 Leave Link  123 at Tue May 29 06:03:27 2018, MaxMem=   402653184 cpu:         2.1
 (Enter /sob/g09/l202.exe)
                          Input orientation:                          
 ---------------------------------------------------------------------
 Center     Atomic      Atomic             Coordinates (Angstroms)
 Number     Number       Type             X           Y           Z
 ---------------------------------------------------------------------
      1          6           0        1.613098   -0.591843    0.180568
      2          6           0        0.292813   -0.215927    0.711822
      3          6           0        0.916527    0.464550   -0.628945
      4          1           0        2.470056   -0.301827    0.771892
      5          1           0        1.718758   -1.550543   -0.305771
      6          1           0        0.219990    0.388206    1.615240
      7          1           0        0.699541    0.224660   -1.658398
      8          1           0        1.146758    1.509671   -0.467969
      9          6           0       -0.752565   -0.367030   -0.249798
     10          8           0       -1.791005    0.493272    0.032492
     11          1           0       -2.476360    0.358730   -0.633164
 ---------------------------------------------------------------------
                    Distance matrix (angstroms):
                    1          2          3          4          5
     1  C    0.000000
     2  C    1.471969   0.000000
     3  C    1.502161   1.627797   0.000000
     4  H    1.080810   2.179764   2.227808   0.000000
     5  H    1.080184   2.202275   2.192855   1.812485   0.000000
     6  H    2.226999   1.089240   2.351033   2.500035   3.113733
     7  H    2.209765   2.444889   1.079075   3.052576   2.453518
     8  H    2.248207   2.258056   1.082219   2.563180   3.117435
     9  C    2.414978   1.428412   1.902931   3.381329   2.740670
    10  O    3.575936   2.303639   2.787302   4.397219   4.075541
    11  H    4.276613   3.131700   3.394540   5.184356   4.620771
                    6          7          8          9         10
     6  H    0.000000
     7  H    3.312615   0.000000
     8  H    2.540933   1.807866   0.000000
     9  C    2.234863   2.107810   2.678999   0.000000
    10  O    2.561295   3.022264   3.148648   1.377739   0.000000
    11  H    3.510911   3.339974   3.805121   1.909232   0.964838
                   11
    11  H    0.000000
 Symmetry turned off by external request.
 Stoichiometry    C4H6O
 Framework group  C1[X(C4H6O)]
 Deg. of freedom    27
 Full point group                 C1      NOp   1
 Rotational constants (GHZ):     15.4777566      3.8200667      3.5170500
 Leave Link  202 at Tue May 29 06:03:27 2018, MaxMem=   402653184 cpu:         0.0
 (Enter /sob/g09/l301.exe)
 Standard basis: STO-3G (5D, 7F)
 Ernie: Thresh=  0.10000D-02 Tol=  0.10000D-05 Strict=F.
    31 basis functions,    93 primitive gaussians,    31 cartesian basis functions
    19 alpha electrons       19 beta electrons
       nuclear repulsion energy       167.1279284378 Hartrees.
 IExCor=    0 DFT=F Ex=HF Corr=None ExCW=0 ScaHFX=  1.000000
 ScaDFX=  1.000000  1.000000  1.000000  1.000000 ScalE2=  1.000000  1.000000
 IRadAn=      0 IRanWt=     -1 IRanGd=            0 ICorTp=0 IEmpDi=  4
 NAtoms=   11 NActive=   11 NUniq=   11 SFac= 1.00D+00 NAtFMM=   60 NAOKFM=F Big=F
 Integral buffers will be    131072 words long.
 Raffenetti 1 integral format.
 Two-electron integral symmetry is turned off.
 Leave Link  301 at Tue May 29 06:03:27 2018, MaxMem=   402653184 cpu:         0.1
 (Enter /sob/g09/l402.exe)
 External calculation of energy and first derivatives.
 Running external command "./xtb.sh R"
         input file       "/sob/g09/scratch/Gau-33838.EIn"
         output file      "/sob/g09/scratch/Gau-33838.EOu"
         message file     "/sob/g09/scratch/Gau-33838.EMs"
         fchk file        "/sob/g09/scratch/Gau-33838.EFC"
         mat. el file     "/sob/g09/scratch/Gau-33838.EUF"
Generating mol.tmp
Generating mol.xyz via genxyz
Running: xtb mol.xyz -chrg 0 -uhf 0 -grad > xtbout
xtb running finished!
Extracting data from xtb outputs via extderi
 Recovered energy= -15.5352358263     dipole=      0.000000000000      0.000000000000      0.000000000000
 NRF= 0 NRA=   0 NVA=   0 HaveQM=F NVQ=       0
 Convergence limit is  0.750E-04 MaxStp= 10000 StMxLn= 3.00D-04 StpMin= 1.00D-06.
 Convergence criteria             0.00011250 0.00007500 0.00045000 0.00030000
  Step  NS  ND Rises OKQ   Scale  Max. Force  RMS Force Max. Disp.  RMS Disp.     Energy   Flag
     1   0   0   F    T  1.00D+00 0.00000000 0.00000000 0.00000000 0.00000000  -15.5352358 ====
 Running external command "./xtb.sh R"
         input file       "/sob/g09/scratch/Gau-33838.EIn"
         output file      "/sob/g09/scratch/Gau-33838.EOu"
         message file     "/sob/g09/scratch/Gau-33838.EMs"
         fchk file        "/sob/g09/scratch/Gau-33838.EFC"
         mat. el file     "/sob/g09/scratch/Gau-33838.EUF"
Generating mol.tmp
Generating mol.xyz via genxyz
Running: xtb mol.xyz -chrg 0 -uhf 0 -grad > xtbout
xtb running finished!
Extracting data from xtb outputs via extderi
 Recovered energy= -15.5352358263     dipole=      0.000000000000      0.000000000000      0.000000000000
 Energy=    -15.5352358     NIter=   0.
 Dipole moment=       0.000000       0.000000       0.000000
 Leave Link  402 at Tue May 29 06:03:28 2018, MaxMem=   402653184 cpu:         1.4
 (Enter /sob/g09/l716.exe)
 Dipole        = 0.00000000D+00 0.00000000D+00 0.00000000D+00
 -------------------------------------------------------------------
 Center     Atomic                   Forces (Hartrees/Bohr)
 Number     Number              X              Y              Z
 -------------------------------------------------------------------
      1        6           0.003886248   -0.003477781   -0.000120575
      2        6           0.000979537    0.009338461   -0.012922957
      3        6           0.010309066    0.005398465    0.009059773
      4        1           0.000056051   -0.000796722    0.000525331
      5        1           0.000000247   -0.000206863   -0.000177128
      6        1          -0.000052039    0.001504337   -0.001635496
      7        1          -0.001765646    0.000069775    0.001731028
[...]
 Running external command "./xtb.sh R"
         input file       "/sob/g09/scratch/Gau-33838.EIn"
         output file      "/sob/g09/scratch/Gau-33838.EOu"
         message file     "/sob/g09/scratch/Gau-33838.EMs"
         fchk file        "/sob/g09/scratch/Gau-33838.EFC"
         mat. el file     "/sob/g09/scratch/Gau-33838.EUF"
Generating mol.tmp
Generating mol.xyz via genxyz
Running: xtb mol.xyz -chrg 0 -uhf 0 -grad > xtbout
xtb running finished!
Extracting data from xtb outputs via extderi
 Recovered energy= -15.6046509220     dipole=      0.000000000000      0.000000000000      0.000000000000
 Energy=    -15.6046509     NIter=   0.
 Dipole moment=       0.000000       0.000000       0.000000
 Leave Link  402 at Tue May 29 06:04:22 2018, MaxMem=   402653184 cpu:         1.4
 (Enter /sob/g09/l716.exe)
 Dipole        = 0.00000000D+00 0.00000000D+00 0.00000000D+00
 -------------------------------------------------------------------
 Center     Atomic                   Forces (Hartrees/Bohr)
 Number     Number              X              Y              Z
 -------------------------------------------------------------------
      1        6          -0.006645939    0.009616314   -0.000740031
      2        6          -0.002896370   -0.020437084    0.014392931
      3        6          -0.011303161   -0.007463278   -0.015846245
      4        1          -0.000718951    0.002461375   -0.001112394
      5        1           0.000858661    0.000669841    0.000911226
      6        1          -0.001555363   -0.009320574   -0.000235351
      7        1          -0.002241006   -0.003211875   -0.001076906
      8        1           0.000821039   -0.000188072   -0.004029526
      9        6           0.016631251    0.035268532    0.023389395
     10        8           0.003709565   -0.007969397   -0.013029209
     11        1           0.003340273    0.000574218   -0.002623889
 -------------------------------------------------------------------
 Cartesian Forces:  Max     0.035268532 RMS     0.010546480
 Leave Link  716 at Tue May 29 06:04:22 2018, MaxMem=   402653184 cpu:         0.0
 (Enter /sob/g09/l123.exe)
 IRC-IRC-IRC-IRC-IRC-IRC-IRC-IRC-IRC-IRC-IRC-IRC-IRC-IRC-IRC-IRC-IRC-IRC
 Pt 39 Step number   1 out of a maximum of  10
 Using modified Bulirsch-Stoer corrector integration.
   Using distance weighted interpolants to fit PES.
 PreDWI: IReCr0= 2 IReCr1= 1 IReCr2= 1 IReCr3= 1
 Modified Bulirsch-Stoer Extrapolation Cycles:
    EPS =    0.000010000000000
    Cycle     1 NS=    48
    Cycle     2 NS=    64 Truncation Error =  0.000022940
    Cycle     3 NS=    96 Truncation Error =  0.000000049
 BS completed in    3 cycles and     208 integration steps.
 Maximum DWI energy   std dev =  0.000001304 at pt    36
 Maximum DWI gradient std dev =  0.012492675 at pt    39
 SUMMARY OF CORRECTOR INTEGRATION:
   Predictor End Point Energy =   -15.604651
   Old End Point Energy       =   -15.604651
   Corrected End Point Energy =   -15.604652
   Predictor End-Start Dist.  =     0.178269
   Old End-Start Dist.        =     0.178269
   New End-Start Dist.        =     0.178245
   New End-Old End Dist.      =     0.001739
 CORRECTOR INTEGRATION CONVERGENCE:
   Recorrection delta-x convergence threshold:    0.010000
   Delta-x Convergence Met
 Point Number:  19          Path Number:   2
                    CURRENT STRUCTURE
                Cartesian Coordinates (Ang):                
 ---------------------------------------------------------------------
 Center     Atomic                     Coordinates (Angstroms)
 Number     Number                        X           Y           Z
 ---------------------------------------------------------------------
      1          6                    1.531947   -0.509981    0.172941
      2          6                    0.239472   -0.389207    0.923978
      3          6                    0.796422    0.373996   -0.857393
      4          1                    2.427594   -0.113982    0.644982
      5          1                    1.727288   -1.514429   -0.198394
      6          1                    0.027983   -0.467852    1.974373
      7          1                    0.958232    0.207720   -1.922314
      8          1                    0.954870    1.424616   -0.621360
      9          6                   -0.514365   -0.067148   -0.136465
     10          8                   -1.778895    0.451624   -0.018328
     11          1                   -2.313996    0.345520   -0.814227
 ---------------------------------------------------------------------
   CHANGE IN THE REACTION COORDINATE =    0.17824
   NET REACTION COORDINATE UP TO THIS POINT =    3.38692
  # OF POINTS ALONG THE PATH =  39
  # OF STEPS =   1

 Calculating another point on the path.
 Point Number 20 in REVERSE path direction.
 Using LQA Reaction Path Following.
   LQA: T_Est iteration completed in    4 iterations.
 IRC-IRC-IRC-IRC-IRC-IRC-IRC-IRC-IRC-IRC-IRC-IRC-IRC-IRC-IRC-IRC-IRC-IRC
 Leave Link  123 at Tue May 29 06:04:23 2018, MaxMem=   402653184 cpu:         1.5
 (Enter /sob/g09/l202.exe)
                          Input orientation:                          
 ---------------------------------------------------------------------
 Center     Atomic      Atomic             Coordinates (Angstroms)
 Number     Number       Type             X           Y           Z
 ---------------------------------------------------------------------
      1          6           0        1.529567   -0.506398    0.172638
      2          6           0        0.238512   -0.396974    0.929119
      3          6           0        0.792120    0.371212   -0.863174
      4          1           0        2.424345   -0.102512    0.640115
      5          1           0        1.731580   -1.511351   -0.194437
      6          1           0        0.021008   -0.509313    1.975488
      7          1           0        0.947778    0.192718   -1.926783
      8          1           0        0.958696    1.423757   -0.640148
      9          6           0       -0.508305   -0.053961   -0.127593
     10          8           0       -1.777834    0.449454   -0.021979
     11          1           0       -2.299442    0.348197   -0.827820
 ---------------------------------------------------------------------
                    Distance matrix (angstroms):
                    1          2          3          4          5
     1  C    0.000000
     2  C    1.500353   0.000000
     3  C    1.544970   2.027043   0.000000
     4  H    1.087330   2.224431   2.269019   0.000000
     5  H    1.088799   2.175653   2.207677   1.777985   0.000000
     6  H    2.350751   1.074624   3.070495   2.779341   2.939169
     7  H    2.287971   3.001162   1.089658   2.975966   2.553276
     8  H    2.170717   2.509248   1.088733   2.473195   3.067714
     9  C    2.108971   1.338669   1.553369   3.031859   2.673114
    10  O    3.448250   2.384676   2.705253   4.289678   4.023740
    11  H    4.048772   3.175425   3.091849   4.967105   4.484220
                    6          7          8          9         10
     6  H    0.000000
     7  H    4.071790   0.000000
     8  H    3.384903   1.780731   0.000000
     9  C    2.215958   2.327684   2.144401   0.000000
    10  O    2.853934   3.335139   2.969848   1.369775   0.000000
    11  H    3.738762   3.431666   3.436206   1.964744   0.965250
                   11
    11  H    0.000000
 Symmetry turned off by external request.
 Stoichiometry    C4H6O
 Framework group  C1[X(C4H6O)]
 Deg. of freedom    27
 Full point group                 C1      NOp   1
 Rotational constants (GHZ):     12.9978047      4.3804796      3.4768847
 Leave Link  202 at Tue May 29 06:04:23 2018, MaxMem=   402653184 cpu:         0.0
 (Enter /sob/g09/l301.exe)
 Standard basis: STO-3G (5D, 7F)
 Ernie: Thresh=  0.10000D-02 Tol=  0.10000D-05 Strict=F.
    31 basis functions,    93 primitive gaussians,    31 cartesian basis functions
    19 alpha electrons       19 beta electrons
       nuclear repulsion energy       168.0477188580 Hartrees.
 IExCor=    0 DFT=F Ex=HF Corr=None ExCW=0 ScaHFX=  1.000000
 ScaDFX=  1.000000  1.000000  1.000000  1.000000 ScalE2=  1.000000  1.000000
 IRadAn=      0 IRanWt=     -1 IRanGd=            0 ICorTp=0 IEmpDi=  4
 NAtoms=   11 NActive=   11 NUniq=   11 SFac= 1.00D+00 NAtFMM=   60 NAOKFM=F Big=F
 Integral buffers will be    131072 words long.
 Raffenetti 1 integral format.
 Two-electron integral symmetry is turned off.
 Leave Link  301 at Tue May 29 06:04:23 2018, MaxMem=   402653184 cpu:         0.1
 (Enter /sob/g09/l402.exe)
 External calculation of energy and first derivatives.
 Running external command "./xtb.sh R"
         input file       "/sob/g09/scratch/Gau-33838.EIn"
         output file      "/sob/g09/scratch/Gau-33838.EOu"
         message file     "/sob/g09/scratch/Gau-33838.EMs"
         fchk file        "/sob/g09/scratch/Gau-33838.EFC"
         mat. el file     "/sob/g09/scratch/Gau-33838.EUF"
Generating mol.tmp
Generating mol.xyz via genxyz
Running: xtb mol.xyz -chrg 0 -uhf 0 -grad > xtbout
xtb running finished!
Extracting data from xtb outputs via extderi
 Recovered energy= -15.6082329306     dipole=      0.000000000000      0.000000000000      0.000000000000
 NRF= 0 NRA=   0 NVA=   0 HaveQM=F NVQ=       0
 Convergence limit is  0.750E-04 MaxStp= 10000 StMxLn= 3.00D-04 StpMin= 1.00D-06.
 Convergence criteria             0.00011250 0.00007500 0.00045000 0.00030000
  Step  NS  ND Rises OKQ   Scale  Max. Force  RMS Force Max. Disp.  RMS Disp.     Energy   Flag
     1   0   0   F    T  1.00D+00 0.00000000 0.00000000 0.00000000 0.00000000  -15.6082329 ====
 Running external command "./xtb.sh R"
         input file       "/sob/g09/scratch/Gau-33838.EIn"
         output file      "/sob/g09/scratch/Gau-33838.EOu"
         message file     "/sob/g09/scratch/Gau-33838.EMs"
         fchk file        "/sob/g09/scratch/Gau-33838.EFC"
         mat. el file     "/sob/g09/scratch/Gau-33838.EUF"
Generating mol.tmp
Generating mol.xyz via genxyz
Running: xtb mol.xyz -chrg 0 -uhf 0 -grad > xtbout
xtb running finished!
Extracting data from xtb outputs via extderi
 Recovered energy= -15.6082329306     dipole=      0.000000000000      0.000000000000      0.000000000000
 Energy=    -15.6082329     NIter=   0.
 Dipole moment=       0.000000       0.000000       0.000000
 Leave Link  402 at Tue May 29 06:04:24 2018, MaxMem=   402653184 cpu:         1.6
 (Enter /sob/g09/l716.exe)
 Dipole        = 0.00000000D+00 0.00000000D+00 0.00000000D+00
 -------------------------------------------------------------------
 Center     Atomic                   Forces (Hartrees/Bohr)
 Number     Number              X              Y              Z
 -------------------------------------------------------------------
      1        6          -0.005519518    0.008695880   -0.000709382
      2        6          -0.002179721   -0.019020156    0.012287087
      3        6          -0.010636502   -0.006620967   -0.013323633
      4        1          -0.000714129    0.002327130   -0.000938288
      5        1           0.000956932    0.000684118    0.000736882
      6        1          -0.001260246   -0.008387094   -0.000479116
      7        1          -0.002449303   -0.003280324   -0.000826158
      8        1           0.000933756   -0.000188671   -0.003967346
      9        6           0.014333415    0.032303279    0.022329470
     10        8           0.003172293   -0.007237905   -0.012615591
     11        1           0.003363022    0.000724710   -0.002493927
 -------------------------------------------------------------------
 Cartesian Forces:  Max     0.032303279 RMS     0.009630702
 Leave Link  716 at Tue May 29 06:04:24 2018, MaxMem=   402653184 cpu:         0.0
 (Enter /sob/g09/l123.exe)
 IRC-IRC-IRC-IRC-IRC-IRC-IRC-IRC-IRC-IRC-IRC-IRC-IRC-IRC-IRC-IRC-IRC-IRC
 Pt 40 Step number   1 out of a maximum of  10
 Using modified Bulirsch-Stoer corrector integration.
   Using distance weighted interpolants to fit PES.
 PreDWI: IReCr0= 2 IReCr1= 1 IReCr2= 1 IReCr3= 1
 Modified Bulirsch-Stoer Extrapolation Cycles:
    EPS =    0.000010000000000
    Cycle     1 NS=    48
    Cycle     2 NS=    64 Truncation Error =  0.000023259
    Cycle     3 NS=    96 Truncation Error =  0.000000056
 BS completed in    3 cycles and     208 integration steps.
 Maximum DWI energy   std dev =  0.000000903 at pt    36
 Maximum DWI gradient std dev =  0.013208815 at pt    39
 SUMMARY OF CORRECTOR INTEGRATION:
   Predictor End Point Energy =   -15.608233
   Old End Point Energy       =   -15.608233
   Corrected End Point Energy =   -15.608233
   Predictor End-Start Dist.  =     0.178268
   Old End-Start Dist.        =     0.178268
   New End-Start Dist.        =     0.178243
   New End-Old End Dist.      =     0.001770
 CORRECTOR INTEGRATION CONVERGENCE:
   Recorrection delta-x convergence threshold:    0.010000
   Delta-x Convergence Met
 Point Number:  20          Path Number:   2
                    CURRENT STRUCTURE
                Cartesian Coordinates (Ang):                
 ---------------------------------------------------------------------
 Center     Atomic                     Coordinates (Angstroms)
 Number     Number                        X           Y           Z
 ---------------------------------------------------------------------
      1          6                    1.529560   -0.506401    0.172644
      2          6                    0.238501   -0.396987    0.929124
      3          6                    0.792115    0.371219   -0.863151
      4          1                    2.424310   -0.102615    0.640164
      5          1                    1.731554   -1.511315   -0.194491
      6          1                    0.021136   -0.509023    1.974804
      7          1                    0.947583    0.192646   -1.926774
      8          1                    0.958794    1.423704   -0.640137
      9          6                   -0.508290   -0.053932   -0.127559
     10          8                   -1.777836    0.449424   -0.022012
     11          1                   -2.299269    0.348264   -0.827470
 ---------------------------------------------------------------------
   CHANGE IN THE REACTION COORDINATE =    0.17824
   NET REACTION COORDINATE UP TO THIS POINT =    3.56516
  # OF POINTS ALONG THE PATH =  40
  # OF STEPS =   1

 Maximum number of steps reached.
 Calculation of REVERSE path complete.
 Reaction path calculation complete.
 
 Energies reported relative to the TS energy of         -15.528221
 --------------------------------------------------------------------------
    Summary of reaction path following
 --------------------------------------------------------------------------
                        Energy    RxCoord
   1                   -0.08001  -3.56516
   2                   -0.07643  -3.38692
   3                   -0.07255  -3.20867
   4                   -0.06838  -3.03043
   5                   -0.06393  -2.85217
   6                   -0.05921  -2.67392
   7                   -0.05425  -2.49566
   8                   -0.04909  -2.31741
   9                   -0.04379  -2.13915
  10                   -0.03840  -1.96088
  11                   -0.03300  -1.78262
  12                   -0.02767  -1.60436
  13                   -0.02252  -1.42609
  14                   -0.01765  -1.24783
  15                   -0.01318  -1.06956
  16                   -0.00922  -0.89130
  17                   -0.00588  -0.71304
  18                   -0.00326  -0.53478
  19                   -0.00141  -0.35652
  20                   -0.00033  -0.17829
  21                    0.00000   0.00000
  22                   -0.00031   0.17828
  23                   -0.00113   0.35649
  24                   -0.00233   0.53473
  25                   -0.00378   0.71297
  26                   -0.00536   0.89120
  27                   -0.00702   1.06943
  28                   -0.00867   1.24766
  29                   -0.01028   1.42588
  30                   -0.01182   1.60409
  31                   -0.01327   1.78230
  32                   -0.01461   1.96049
  33                   -0.01585   2.13867
  34                   -0.01698   2.31684
  35                   -0.01801   2.49500
  36                   -0.01896   2.67317
  37                   -0.01983   2.85136
  38                   -0.02064   3.02958
  39                   -0.02140   3.20781
  40                   -0.02210   3.38605
  41                   -0.02277   3.56429
 --------------------------------------------------------------------------
 
 Total number of points:                   40
 Total number of gradient calculations:    41
 Total number of Hessian calculations:      1
 IRC-IRC-IRC-IRC-IRC-IRC-IRC-IRC-IRC-IRC-IRC-IRC-IRC-IRC-IRC-IRC-IRC-IRC
 Leave Link  123 at Tue May 29 06:04:24 2018, MaxMem=   402653184 cpu:         1.4
 (Enter /sob/g09/l202.exe)
                          Input orientation:                          
 ---------------------------------------------------------------------
 Center     Atomic      Atomic             Coordinates (Angstroms)
 Number     Number       Type             X           Y           Z
 ---------------------------------------------------------------------
      1          6           0        1.529567   -0.506398    0.172638
      2          6           0        0.238512   -0.396974    0.929119
      3          6           0        0.792120    0.371212   -0.863174
      4          1           0        2.424345   -0.102512    0.640115
      5          1           0        1.731580   -1.511351   -0.194437
      6          1           0        0.021008   -0.509313    1.975488
      7          1           0        0.947778    0.192718   -1.926783
      8          1           0        0.958696    1.423757   -0.640148
      9          6           0       -0.508305   -0.053961   -0.127593
     10          8           0       -1.777834    0.449454   -0.021979
     11          1           0       -2.299442    0.348197   -0.827820
 ---------------------------------------------------------------------
                    Distance matrix (angstroms):
                    1          2          3          4          5
     1  C    0.000000
     2  C    1.500353   0.000000
     3  C    1.544970   2.027043   0.000000
     4  H    1.087330   2.224431   2.269019   0.000000
     5  H    1.088799   2.175653   2.207677   1.777985   0.000000
     6  H    2.350751   1.074624   3.070495   2.779341   2.939169
     7  H    2.287971   3.001162   1.089658   2.975966   2.553276
     8  H    2.170717   2.509248   1.088733   2.473195   3.067714
     9  C    2.108971   1.338669   1.553369   3.031859   2.673114
    10  O    3.448250   2.384676   2.705253   4.289678   4.023740
    11  H    4.048772   3.175425   3.091849   4.967105   4.484220
                    6          7          8          9         10
     6  H    0.000000
     7  H    4.071790   0.000000
     8  H    3.384903   1.780731   0.000000
     9  C    2.215958   2.327684   2.144401   0.000000
    10  O    2.853934   3.335139   2.969848   1.369775   0.000000
    11  H    3.738762   3.431666   3.436206   1.964744   0.965250
                   11
    11  H    0.000000
 Symmetry turned off by external request.
 Stoichiometry    C4H6O
 Framework group  C1[X(C4H6O)]
 Deg. of freedom    27
 Full point group                 C1      NOp   1
 Rotational constants (GHZ):     12.9978047      4.3804796      3.4768847
 Leave Link  202 at Tue May 29 06:04:24 2018, MaxMem=   402653184 cpu:         0.1
 (Enter /sob/g09/l601.exe)
 Leave Link  601 at Tue May 29 06:04:24 2018, MaxMem=   402653184 cpu:         0.0
 (Enter /sob/g09/l9999.exe)

 This type of calculation cannot be archived.


 SILVERMAN'S PARADOX - IF MURPHY'S LAW CAN GO WRONG, IT WILL.
 Job cpu time:       0 days  0 hours  2 minutes 48.5 seconds.
 File lengths (MBytes):  RWF=      5 Int=      0 D2E=      0 Chk=      2 Scr=      1
 Normal termination of Gaussian 09 at Tue May 29 06:04:24 2018.
