 Entering Gaussian System, Link 0=g09
 Initial command:
 /sob/g09/l1.exe "/sob/g09/scratch/Gau-31552.inp" -scrdir="/sob/g09/scratch/"
 Default is to use a total of   4 processors:
                                4 via shared-memory
                                1 via Linda
 Entering Link 1 = /sob/g09/l1.exe PID=     31554.
  
 Copyright (c) 1988,1990,1992,1993,1995,1998,2003,2009,2013,
            Gaussian, Inc.  All Rights Reserved.
  
 This is part of the Gaussian(R) 09 program.  It is based on
 the Gaussian(R) 03 system (copyright 2003, Gaussian, Inc.),
 the Gaussian(R) 98 system (copyright 1998, Gaussian, Inc.),
 the Gaussian(R) 94 system (copyright 1995, Gaussian, Inc.),
 the Gaussian 92(TM) system (copyright 1992, Gaussian, Inc.),
 the Gaussian 90(TM) system (copyright 1990, Gaussian, Inc.),
 the Gaussian 88(TM) system (copyright 1988, Gaussian, Inc.),
 the Gaussian 86(TM) system (copyright 1986, Carnegie Mellon
 University), and the Gaussian 82(TM) system (copyright 1983,
 Carnegie Mellon University). Gaussian is a federally registered
 trademark of Gaussian, Inc.
  
 This software contains proprietary and confidential information,
 including trade secrets, belonging to Gaussian, Inc.
  
 This software is provided under written license and may be
 used, copied, transmitted, or stored only in accord with that
 written license.
  
 The following legend is applicable only to US Government
 contracts under FAR:
  
                    RESTRICTED RIGHTS LEGEND
  
 Use, reproduction and disclosure by the US Government is
 subject to restrictions as set forth in subparagraphs (a)
 and (c) of the Commercial Computer Software - Restricted
 Rights clause in FAR 52.227-19.
  
 Gaussian, Inc.
 340 Quinnipiac St., Bldg. 40, Wallingford CT 06492
  
  
 ---------------------------------------------------------------
 Warning -- This program may not be used in any manner that
 competes with the business of Gaussian, Inc. or will provide
 assistance to any competitor of Gaussian, Inc.  The licensee
 of this program is prohibited from giving any competitor of
 Gaussian, Inc. access to this program.  By using this program,
 the user acknowledges that Gaussian, Inc. is engaged in the
 business of creating and licensing software in the field of
 computational chemistry and represents and warrants to the
 licensee that it is not a competitor of Gaussian, Inc. and that
 it will not use this program in any manner prohibited above.
 ---------------------------------------------------------------
  

 Cite this work as:
 Gaussian 09, Revision D.01,
 M. J. Frisch, G. W. Trucks, H. B. Schlegel, G. E. Scuseria, 
 M. A. Robb, J. R. Cheeseman, G. Scalmani, V. Barone, B. Mennucci, 
 G. A. Petersson, H. Nakatsuji, M. Caricato, X. Li, H. P. Hratchian, 
 A. F. Izmaylov, J. Bloino, G. Zheng, J. L. Sonnenberg, M. Hada, 
 M. Ehara, K. Toyota, R. Fukuda, J. Hasegawa, M. Ishida, T. Nakajima, 
 Y. Honda, O. Kitao, H. Nakai, T. Vreven, J. A. Montgomery, Jr., 
 J. E. Peralta, F. Ogliaro, M. Bearpark, J. J. Heyd, E. Brothers, 
 K. N. Kudin, V. N. Staroverov, T. Keith, R. Kobayashi, J. Normand, 
 K. Raghavachari, A. Rendell, J. C. Burant, S. S. Iyengar, J. Tomasi, 
 M. Cossi, N. Rega, J. M. Millam, M. Klene, J. E. Knox, J. B. Cross, 
 V. Bakken, C. Adamo, J. Jaramillo, R. Gomperts, R. E. Stratmann, 
 O. Yazyev, A. J. Austin, R. Cammi, C. Pomelli, J. W. Ochterski, 
 R. L. Martin, K. Morokuma, V. G. Zakrzewski, G. A. Voth, 
 P. Salvador, J. J. Dannenberg, S. Dapprich, A. D. Daniels, 
 O. Farkas, J. B. Foresman, J. V. Ortiz, J. Cioslowski, 
 and D. J. Fox, Gaussian, Inc., Wallingford CT, 2013.
 
 ******************************************
 Gaussian 09:  ES64L-G09RevD.01 24-Apr-2013
                29-May-2018 
 ******************************************
 %chk=mol.chk
 -----------------------------------------------------
 #P opt(ts,calcfc,noeigen,nomicro) external='./xtb.sh'
 -----------------------------------------------------
 1/5=1,10=4,11=1,14=-1,18=20,26=1,38=1/1,3;
 2/9=110,12=2,17=6,18=5,40=1/2;
 3/11=9,16=1,25=1,30=1,41=9900000,43=2,71=2,140=1/1;
 4/20=17,22=2,24=3,113=1,114=1/2;
 6/7=2,8=2,9=2,10=2/1;
 7/25=1,44=-1/16;
 1/5=1,10=4,11=1,14=-1,18=20,26=1/3(2);
 2/9=110/2;
 99//99;
 2/9=110/2;
 3/11=9,16=1,25=1,30=1,41=9900000,43=2,71=1/1;
 4/16=2,20=17,22=1,24=3,113=1,114=1/2;
 7/44=-1/16;
 1/5=1,11=1,14=-1,18=20,26=1/3(-4);
 2/9=110/2;
 6/7=2,8=2,9=2,10=2/1;
 99//99;
 Leave Link    1 at Tue May 29 05:17:01 2018, MaxMem=           0 cpu:         0.3
 (Enter /sob/g09/l101.exe)
 -------------------
 Title Card Required
 -------------------
 Symbolic Z-matrix:
 Charge =  0 Multiplicity = 1
 C                     1.42728  -0.77368  -0.12108 
 C                     0.17533  -0.03492   0.37914 
 C                     1.10354   0.2327   -1.156 
 H                     2.3385   -0.58536   0.43854 
 H                     1.27941  -1.80117  -0.43697 
 H                    -0.00124  -0.03546   1.457 
 H                     0.66176  -0.10925  -2.08621 
 H                     1.12976   0.98086  -0.24387 
 C                    -0.83476  -0.13075  -0.67483 
 O                    -2.03262  -0.1617   -0.08074 
 H                    -2.70051  -0.22479  -0.78431 
 
 NAtoms=     11 NQM=       11 NQMF=       0 NMMI=      0 NMMIF=      0
                NMic=       0 NMicF=      0.
                    Isotopes and Nuclear Properties:
 (Nuclear quadrupole moments (NQMom) in fm**2, nuclear magnetic moments (NMagM)
  in nuclear magnetons)

  Atom         1           2           3           4           5           6           7           8           9          10
 IAtWgt=          12          12          12           1           1           1           1           1          12          16
 AtmWgt=  12.0000000  12.0000000  12.0000000   1.0078250   1.0078250   1.0078250   1.0078250   1.0078250  12.0000000  15.9949146
 NucSpn=           0           0           0           1           1           1           1           1           0           0
 AtZEff=   0.0000000   0.0000000   0.0000000   0.0000000   0.0000000   0.0000000   0.0000000   0.0000000   0.0000000   0.0000000
 NQMom=    0.0000000   0.0000000   0.0000000   0.0000000   0.0000000   0.0000000   0.0000000   0.0000000   0.0000000   0.0000000
 NMagM=    0.0000000   0.0000000   0.0000000   2.7928460   2.7928460   2.7928460   2.7928460   2.7928460   0.0000000   0.0000000
 AtZNuc=   6.0000000   6.0000000   6.0000000   1.0000000   1.0000000   1.0000000   1.0000000   1.0000000   6.0000000   8.0000000

  Atom        11
 IAtWgt=           1
 AtmWgt=   1.0078250
 NucSpn=           1
 AtZEff=   0.0000000
 NQMom=    0.0000000
 NMagM=    2.7928460
 AtZNuc=   1.0000000
 Leave Link  101 at Tue May 29 05:17:01 2018, MaxMem=   402653184 cpu:         0.3
 (Enter /sob/g09/l103.exe)

 GradGradGradGradGradGradGradGradGradGradGradGradGradGradGradGradGradGrad
 Berny optimization.
 Initialization pass.
                           ----------------------------
                           !    Initial Parameters    !
                           ! (Angstroms and Degrees)  !
 --------------------------                            --------------------------
 ! Name  Definition              Value          Derivative Info.                !
 --------------------------------------------------------------------------------
 ! R1    R(1,2)                  1.5373         calculate D2E/DX2 analytically  !
 ! R2    R(1,3)                  1.4794         calculate D2E/DX2 analytically  !
 ! R3    R(1,4)                  1.0858         calculate D2E/DX2 analytically  !
 ! R4    R(1,5)                  1.0851         calculate D2E/DX2 analytically  !
 ! R5    R(2,3)                  1.8138         calculate D2E/DX2 analytically  !
 ! R6    R(2,6)                  1.0922         calculate D2E/DX2 analytically  !
 ! R7    R(2,9)                  1.463          calculate D2E/DX2 analytically  !
 ! R8    R(3,7)                  1.0851         calculate D2E/DX2 analytically  !
 ! R9    R(3,8)                  1.18           calculate D2E/DX2 analytically  !
 ! R10   R(9,10)                 1.3375         calculate D2E/DX2 analytically  !
 ! R11   R(10,11)                0.9721         calculate D2E/DX2 analytically  !
 ! A1    A(2,1,4)              115.6191         calculate D2E/DX2 analytically  !
 ! A2    A(2,1,5)              116.0273         calculate D2E/DX2 analytically  !
 ! A3    A(3,1,4)              115.2269         calculate D2E/DX2 analytically  !
 ! A4    A(3,1,5)              114.2479         calculate D2E/DX2 analytically  !
 ! A5    A(4,1,5)              115.3811         calculate D2E/DX2 analytically  !
 ! A6    A(1,2,6)              116.9055         calculate D2E/DX2 analytically  !
 ! A7    A(1,2,9)              107.24           calculate D2E/DX2 analytically  !
 ! A8    A(3,2,6)              156.6409         calculate D2E/DX2 analytically  !
 ! A9    A(3,2,9)               75.7145         calculate D2E/DX2 analytically  !
 ! A10   A(6,2,9)              126.82           calculate D2E/DX2 analytically  !
 ! A11   A(1,3,7)              118.3215         calculate D2E/DX2 analytically  !
 ! A12   A(1,3,8)               83.4367         calculate D2E/DX2 analytically  !
 ! A13   A(2,3,7)              118.0805         calculate D2E/DX2 analytically  !
 ! A14   A(2,3,8)               56.68           calculate D2E/DX2 analytically  !
 ! A15   A(7,3,8)              150.6356         calculate D2E/DX2 analytically  !
 ! A16   A(2,9,10)             107.45           calculate D2E/DX2 analytically  !
 ! A17   A(9,10,11)            107.1781         calculate D2E/DX2 analytically  !
 ! D1    D(4,1,2,6)            -45.0047         calculate D2E/DX2 analytically  !
 ! D2    D(4,1,2,9)            165.5511         calculate D2E/DX2 analytically  !
 ! D3    D(5,1,2,6)             94.7413         calculate D2E/DX2 analytically  !
 ! D4    D(5,1,2,9)            -54.7029         calculate D2E/DX2 analytically  !
 ! D5    D(4,1,3,7)            142.9989         calculate D2E/DX2 analytically  !
 ! D6    D(4,1,3,8)            -57.8456         calculate D2E/DX2 analytically  !
 ! D7    D(5,1,3,7)              5.9543         calculate D2E/DX2 analytically  !
 ! D8    D(5,1,3,8)            165.1098         calculate D2E/DX2 analytically  !
 ! D9    D(6,2,3,7)            173.9807         calculate D2E/DX2 analytically  !
 ! D10   D(6,2,3,8)            -39.7768         calculate D2E/DX2 analytically  !
 ! D11   D(9,2,3,7)            -20.0472         calculate D2E/DX2 analytically  !
 ! D12   D(9,2,3,8)            126.1953         calculate D2E/DX2 analytically  !
 ! D13   D(1,2,9,10)           148.1472         calculate D2E/DX2 analytically  !
 ! D14   D(3,2,9,10)          -170.4638         calculate D2E/DX2 analytically  !
 ! D15   D(6,2,9,10)             2.6409         calculate D2E/DX2 analytically  !
 ! D16   D(2,9,10,11)          179.9647         calculate D2E/DX2 analytically  !
 --------------------------------------------------------------------------------
 Trust Radius=3.00D-01 FncErr=1.00D-07 GrdErr=1.00D-07
 Number of steps in this run=     54 maximum allowed number of steps=    100.
 Search for a saddle point of order  1.
 GradGradGradGradGradGradGradGradGradGradGradGradGradGradGradGradGradGrad

 Leave Link  103 at Tue May 29 05:17:01 2018, MaxMem=   402653184 cpu:         0.0
 (Enter /sob/g09/l202.exe)
                          Input orientation:                          
 ---------------------------------------------------------------------
 Center     Atomic      Atomic             Coordinates (Angstroms)
 Number     Number       Type             X           Y           Z
 ---------------------------------------------------------------------
      1          6           0        1.427275   -0.773682   -0.121081
      2          6           0        0.175330   -0.034923    0.379138
      3          6           0        1.103540    0.232703   -1.156000
      4          1           0        2.338500   -0.585364    0.438538
      5          1           0        1.279413   -1.801169   -0.436969
      6          1           0       -0.001240   -0.035457    1.457002
      7          1           0        0.661755   -0.109249   -2.086206
      8          1           0        1.129757    0.980856   -0.243871
      9          6           0       -0.834759   -0.130747   -0.674834
     10          8           0       -2.032620   -0.161703   -0.080741
     11          1           0       -2.700505   -0.224789   -0.784308
 ---------------------------------------------------------------------
                    Distance matrix (angstroms):
                    1          2          3          4          5
     1  C    0.000000
     2  C    1.537319   0.000000
     3  C    1.479417   1.813794   0.000000
     4  H    1.085803   2.232894   2.176445   0.000000
     5  H    1.085070   2.237108   2.164388   1.834765   0.000000
     6  H    2.252993   1.092231   2.849602   2.610373   2.888760
     7  H    2.211156   2.513972   1.085075   3.067978   2.442146
     8  H    1.783816   1.526722   1.180000   2.092794   2.792731
     9  C    2.415949   1.462984   2.029932   3.393501   2.704924
    10  O    3.513833   2.258895   3.338749   4.422197   3.712722
    11  H    4.216601   3.108068   3.849444   5.197782   4.294807
                    6          7          8          9         10
     6  H    0.000000
     7  H    3.605459   0.000000
     8  H    2.281450   2.191245   0.000000
     9  C    2.290974   2.057180   2.297981   0.000000
    10  O    2.550901   3.359211   3.366405   1.337451   0.000000
    11  H    3.513596   3.607365   4.051736   1.871319   0.972141
                   11
    11  H    0.000000
 Stoichiometry    C4H6O
 Framework group  C1[X(C4H6O)]
 Deg. of freedom    27
 Full point group                 C1      NOp   1
 Largest Abelian subgroup         C1      NOp   1
 Largest concise Abelian subgroup C1      NOp   1
                         Standard orientation:                         
 ---------------------------------------------------------------------
 Center     Atomic      Atomic             Coordinates (Angstroms)
 Number     Number       Type             X           Y           Z
 ---------------------------------------------------------------------
      1          6           0       -1.509404   -0.386783    0.401062
      2          6           0       -0.187006   -0.633621   -0.343037
      3          6           0       -1.181207    0.882301   -0.284784
      4          1           0       -2.373954   -0.914261    0.009543
      5          1           0       -1.444971   -0.338148    1.483125
      6          1           0        0.049486   -1.668358   -0.600639
      7          1           0       -0.814980    1.710643    0.312808
      8          1           0       -1.108623    0.190989   -1.238314
      9          6           0        0.754128    0.398856    0.091221
     10          8           0        1.979115   -0.137176    0.062017
     11          1           0        2.601049    0.552022    0.350570
 ---------------------------------------------------------------------
 Rotational constants (GHZ):     14.8702944      3.6311622      3.2472772
 Leave Link  202 at Tue May 29 05:17:01 2018, MaxMem=   402653184 cpu:         0.0
 (Enter /sob/g09/l301.exe)
 Standard basis: STO-3G (5D, 7F)
 Ernie: Thresh=  0.10000D-02 Tol=  0.10000D-05 Strict=F.
 There are    31 symmetry adapted cartesian basis functions of A   symmetry.
 There are    31 symmetry adapted basis functions of A   symmetry.
    31 basis functions,    93 primitive gaussians,    31 cartesian basis functions
    19 alpha electrons       19 beta electrons
       nuclear repulsion energy       164.4846253525 Hartrees.
 IExCor=    0 DFT=F Ex=HF Corr=None ExCW=0 ScaHFX=  1.000000
 ScaDFX=  1.000000  1.000000  1.000000  1.000000 ScalE2=  1.000000  1.000000
 IRadAn=      0 IRanWt=     -1 IRanGd=            0 ICorTp=0 IEmpDi=  4
 NAtoms=   11 NActive=   11 NUniq=   11 SFac= 1.00D+00 NAtFMM=   60 NAOKFM=F Big=F
 Integral buffers will be    131072 words long.
 Raffenetti 1 integral format.
 Two-electron integral symmetry is turned on.
 Leave Link  301 at Tue May 29 05:17:01 2018, MaxMem=   402653184 cpu:         0.1
 (Enter /sob/g09/l402.exe)
 External calculation of energy, first and second derivatives.
 Running external command "./xtb.sh R"
         input file       "/sob/g09/scratch/Gau-31554.EIn"
         output file      "/sob/g09/scratch/Gau-31554.EOu"
         message file     "/sob/g09/scratch/Gau-31554.EMs"
         fchk file        "/sob/g09/scratch/Gau-31554.EFC"
         mat. el file     "/sob/g09/scratch/Gau-31554.EUF"
Generating mol.tmp
Generating mol.xyz via genxyz
Running: xtb mol.xyz -chrg 0 -uhf 0 -hess > xtbout
xtb running finished!
Extracting data from xtb outputs via extderi
 Recovered energy= -15.3980742005     dipole=      0.000000000000      0.000000000000      0.000000000000
 Energy=    -15.3980742     NIter=   0.
 Dipole moment=       0.000000       0.000000       0.000000
 Leave Link  402 at Tue May 29 05:17:02 2018, MaxMem=   402653184 cpu:         1.4
 (Enter /sob/g09/l601.exe)
 Leave Link  601 at Tue May 29 05:17:02 2018, MaxMem=   402653184 cpu:         0.0
 (Enter /sob/g09/l716.exe)
 Dipole        = 0.00000000D+00 0.00000000D+00 0.00000000D+00
 ***** Axes restored to original set *****
 -------------------------------------------------------------------
 Center     Atomic                   Forces (Hartrees/Bohr)
 Number     Number              X              Y              Z
 -------------------------------------------------------------------
      1        6          -0.012830068   -0.014503920   -0.017049887
      2        6          -0.020370227   -0.050314289   -0.024299412
      3        6           0.043074245    0.034650212    0.037966771
      4        1          -0.004992348   -0.004354048    0.002465155
      5        1           0.004358110   -0.002893248    0.006231144
      6        1          -0.001723951    0.011776128   -0.003439015
      7        1           0.009595546    0.018169550    0.004775562
      8        1           0.000854606    0.023341452   -0.063035352
      9        6           0.021014597   -0.038787317    0.057158417
     10        8          -0.035152709    0.023472205   -0.006738979
     11        1          -0.003827801   -0.000556726    0.005965596
 -------------------------------------------------------------------
 Cartesian Forces:  Max     0.063035352 RMS     0.025243982
 Force constants in Cartesian coordinates: 
                1             2             3             4             5 
      1  0.460579D+00
      2 -0.306750D-01  0.591029D+00
      3  0.150152D+00  0.253346D-01  0.372069D+00
      4 -0.118451D+00  0.739304D-01  0.160870D-01  0.378942D+00
      5  0.449872D-01 -0.706218D-01 -0.929565D-02 -0.517495D-01  0.115819D+00
      6  0.537233D-01 -0.475811D-01 -0.710437D-01 -0.150970D-01  0.287111D-01
      7 -0.412513D-01  0.405069D-01 -0.255811D-01 -0.677891D-01 -0.546508D-01
      8  0.311441D-01 -0.164619D+00  0.768322D-01 -0.314234D-01  0.148682D-01
      9 -0.575936D-01  0.121527D+00 -0.139461D+00  0.465154D-01  0.395121D-01
     10 -0.209718D+00 -0.390035D-01 -0.113827D+00 -0.201140D-01  0.175186D-02
     11 -0.403436D-01 -0.544950D-01 -0.269305D-01  0.109715D-01 -0.197990D-02
     12 -0.112419D+00 -0.269288D-01 -0.988562D-01  0.122341D-01  0.566744D-03
     13 -0.494718D-01 -0.373209D-01 -0.156725D-01  0.130695D-02  0.187317D-01
     14 -0.353449D-01 -0.258231D+00 -0.728136D-01  0.251020D-02 -0.621172D-02
     15 -0.152833D-01 -0.775506D-01 -0.622966D-01  0.160184D-02 -0.141122D-01
     16 -0.107244D-01  0.694383D-02  0.230137D-01 -0.485166D-01 -0.133433D-03
     17  0.518152D-02 -0.136116D-02 -0.143411D-01 -0.111375D-01 -0.240676D-01
     18  0.648028D-02 -0.446806D-02 -0.888114D-02  0.439362D-01  0.227037D-03
     19 -0.359065D-02 -0.786015D-02 -0.884856D-02  0.137786D-01  0.889322D-02
     20  0.110261D-01  0.649258D-02  0.162395D-01  0.618414D-02  0.935488D-02
     21 -0.995284D-02  0.222398D-02 -0.132874D-01 -0.341859D-02 -0.764319D-04
     22  0.376335D-02  0.182228D-01 -0.216803D-02  0.478485D-02  0.644269D-02
     23  0.270603D-02 -0.437964D-01 -0.361523D-02 -0.512341D-02 -0.526040D-02
     24 -0.292757D-02  0.148910D-01  0.850499D-02 -0.235681D-01 -0.308246D-01
     25 -0.293178D-01 -0.216267D-01 -0.166492D-01 -0.631241D-01  0.299744D-01
     26  0.912671D-02 -0.995059D-02  0.170895D-01  0.162415D-01 -0.517925D-01
     27 -0.311718D-02 -0.989126D-02  0.971271D-02 -0.421862D-01 -0.207579D-01
     28  0.116118D-03 -0.237861D-02 -0.649236D-02 -0.717930D-01 -0.582992D-02
     29  0.457619D-02  0.399934D-02 -0.766635D-02 -0.694557D-02  0.125867D-01
     30 -0.898209D-02  0.279692D-02  0.260352D-02 -0.362621D-01  0.691780D-02
     31 -0.193322D-02 -0.739059D-03 -0.139429D-04 -0.902440D-02  0.158251D-02
     32 -0.238442D-02  0.155422D-02 -0.833356D-03 -0.345824D-02  0.730530D-02
     33 -0.793955D-04 -0.353132D-03  0.935137D-03  0.157535D-03 -0.867929D-03
                6             7             8             9            10 
      6  0.478433D+00
      7  0.501465D-01  0.121029D+00
      8  0.253313D-01  0.374423D-01  0.316177D+00
      9  0.122569D-02  0.100680D+00 -0.217507D-01  0.423030D+00
     10 -0.120817D-01  0.223058D-02 -0.523437D-03  0.530947D-03  0.238466D+00
     11  0.446995D-02  0.112643D-01  0.414220D-02  0.912650D-02  0.368580D-01
     12  0.969590D-02 -0.233892D-01  0.144025D-03 -0.191076D-01  0.126670D+00
     13  0.473115D-02 -0.747595D-03  0.336825D-03 -0.101704D-02 -0.383225D-02
     14 -0.225034D-02  0.141279D-02 -0.252126D-01 -0.270322D-02 -0.253262D-02
     15 -0.231390D-02  0.242434D-02  0.279630D-01  0.655995D-02 -0.335671D-02
     16  0.420836D-01 -0.565758D-02  0.141572D-02 -0.112222D-01  0.807126D-03
     17  0.203681D-01 -0.736056D-03 -0.186564D-02 -0.188039D-01 -0.739266D-03
     18 -0.255826D+00  0.472314D-02  0.617544D-03  0.720974D-02 -0.249607D-05
     19 -0.103429D-01 -0.439368D-01 -0.267846D-01 -0.100923D+00  0.246976D-03
     20 -0.291697D-02 -0.324997D-01 -0.710486D-01 -0.926905D-01  0.184926D-03
     21  0.547671D-02 -0.106872D+00 -0.747569D-01 -0.225003D+00  0.812901D-03
     22  0.228900D-01 -0.544972D-03 -0.116302D-01 -0.539664D-01 -0.260803D-02
     23  0.112044D-01 -0.218845D-02 -0.697860D-01 -0.667744D-01  0.153883D-02
     24 -0.109038D-01 -0.425350D-01 -0.546179D-01 -0.431136D-01 -0.927702D-03
     25 -0.119878D+00  0.625738D-01  0.560730D-02  0.562888D-01 -0.379760D-02
     26 -0.430997D-01 -0.248019D-01  0.177476D-02  0.360374D-01  0.397507D-02
     27 -0.190814D+00  0.475401D-01  0.206284D-01  0.161818D-01  0.231727D-02
     28 -0.199389D-01 -0.221230D-01 -0.489770D-02  0.219407D-01 -0.146078D-02
     29  0.831758D-02  0.213555D-01 -0.228359D-02 -0.161383D-02 -0.101299D-02
     30  0.333174D-01 -0.872786D-02 -0.434799D-03 -0.261155D-01 -0.394036D-03
     31  0.376364D-02 -0.378323D-02 -0.686912D-03 -0.123315D-02 -0.220066D-03
     32 -0.255431D-02  0.289504D-02 -0.214704D-02 -0.186612D-02 -0.496890D-03
     33  0.275276D-02  0.159175D-02  0.437786D-04 -0.140710D-02  0.258251D-03
               11            12            13            14            15 
     11  0.611086D-01
     12  0.262870D-01  0.116207D+00
     13 -0.227840D-01 -0.756727D-02  0.526258D-01
     14 -0.695591D-02 -0.272759D-02  0.347007D-01  0.303393D+00
     15 -0.147063D-01 -0.466739D-02  0.171351D-01  0.766663D-01  0.679218D-01
     16 -0.426109D-03 -0.210706D-03 -0.125824D-02 -0.118186D-03  0.129801D-02
     17  0.112591D-02  0.897802D-03  0.199604D-02 -0.166645D-03 -0.919138D-03
     18 -0.713583D-03  0.757103D-03  0.622601D-03 -0.571156D-04 -0.192942D-02
     19  0.306485D-03 -0.214130D-02 -0.656044D-03 -0.856691D-03  0.240791D-03
     20 -0.189341D-02  0.310644D-02  0.893442D-03  0.956420D-04  0.498004D-03
     21  0.135907D-02 -0.255100D-02 -0.108554D-03  0.199085D-03 -0.183576D-03
     22  0.277799D-02  0.242713D-02  0.119604D-03  0.196158D-02 -0.104769D-02
     23 -0.226519D-02 -0.168377D-03  0.283396D-02 -0.633602D-02  0.660550D-03
     24  0.182621D-02 -0.443985D-03  0.511648D-03  0.421282D-02 -0.253010D-02
     25  0.134650D-02  0.253109D-02  0.334033D-02 -0.202216D-02 -0.312840D-02
     26  0.138656D-02 -0.142691D-02  0.127882D-02  0.458751D-03  0.248800D-02
     27 -0.448307D-03  0.603490D-03  0.686546D-03 -0.485394D-03  0.188018D-02
     28 -0.242577D-03  0.185272D-02 -0.147282D-02  0.415953D-03  0.225971D-03
     29 -0.785146D-03  0.583875D-03 -0.736314D-03 -0.562524D-03 -0.493483D-03
     30 -0.578094D-04 -0.177115D-02  0.513119D-03  0.116833D-03 -0.214099D-02
     31  0.271534D-03  0.125804D-04  0.461082D-04 -0.126645D-03 -0.109880D-03
     32  0.611240D-03 -0.334143D-03  0.697331D-04 -0.270784D-03 -0.494023D-03
     33 -0.212162D-03  0.133392D-03  0.165199D-03 -0.157771D-03 -0.300037D-03
               16            17            18            19            20 
     16  0.448564D-01
     17 -0.964197D-02  0.192986D-01
     18 -0.409068D-01  0.770401D-02  0.288982D+00
     19  0.648641D-03  0.163859D-02 -0.241975D-02  0.788006D-01
     20 -0.118837D-02 -0.112693D-02  0.925686D-03  0.325650D-01  0.574473D-01
     21 -0.151218D-02 -0.322848D-02  0.222353D-02  0.100781D+00  0.675961D-01
     22 -0.339177D-02 -0.456000D-02  0.160783D-02 -0.174149D-02 -0.124986D-01
     23 -0.201407D-02 -0.563590D-02  0.175879D-02  0.195391D-02 -0.463701D-03
     24  0.273443D-02  0.314029D-02 -0.401105D-03  0.727207D-02  0.562634D-02
     25  0.171885D-01  0.118629D-01 -0.102625D-01 -0.400385D-01 -0.623138D-02
     26  0.510160D-02  0.233251D-01 -0.737099D-02 -0.130689D-01  0.271614D-02
     27 -0.158481D-01  0.136021D-01 -0.449343D-01  0.830141D-02 -0.312101D-03
     28  0.588857D-02  0.694234D-02 -0.522679D-02 -0.384058D-02  0.158938D-02
     29 -0.873280D-03 -0.105870D-01  0.143221D-02  0.323511D-02 -0.136467D-02
     30  0.210584D-03 -0.830077D-02  0.120859D-01  0.785455D-02  0.197991D-02
     31  0.159341D-03 -0.806612D-03  0.144831D-02  0.329301D-03 -0.248134D-04
     32  0.934275D-03  0.106123D-02 -0.555368D-04 -0.219430D-04 -0.209267D-03
     33  0.359697D-03 -0.118987D-03  0.713716D-03  0.225657D-03 -0.525018D-04
               21            22            23            24            25 
     21  0.238370D+00
     22 -0.332284D-02  0.156957D-01
     23  0.562133D-03 -0.148974D-04  0.130307D+00
     24  0.129022D-02  0.431439D-01  0.580497D-01  0.425431D-01
     25  0.219548D-01 -0.208109D-01 -0.651750D-03  0.186228D-01  0.380756D+00
     26  0.717937D-02 -0.127890D-03  0.468670D-02 -0.512656D-02  0.586679D-02
     27 -0.220276D-02 -0.381666D-02 -0.175591D-03  0.770793D-02 -0.110648D+00
     28  0.181514D-02  0.424840D-02  0.564883D-03 -0.158237D-02 -0.264899D+00
     29 -0.149931D-02 -0.141800D-02 -0.262639D-02  0.154430D-02 -0.225294D-01
     30 -0.344574D-02 -0.295296D-02 -0.142163D-02 -0.243983D-02  0.154402D+00
     31 -0.176509D-03  0.485265D-03  0.394954D-03 -0.744020D-03 -0.418712D-01
     32  0.441296D-03  0.844577D-03  0.117610D-02  0.127839D-02 -0.159651D-02
     33 -0.687501D-03 -0.279429D-02 -0.804112D-04 -0.213839D-03  0.676632D-02
               26            27            28            29            30 
     26  0.368380D-01
     27  0.165313D-02  0.318268D+00
     28 -0.159566D-02  0.134311D+00  0.530566D+00
     29 -0.192721D-02 -0.102949D-01  0.223066D-01  0.213359D-01
     30 -0.100499D-01 -0.134468D+00  0.616552D-01  0.286992D-01  0.379022D+00
     31 -0.199617D-02 -0.175396D-01 -0.175230D+00 -0.179579D-01 -0.167317D+00
     32 -0.751573D-02  0.648182D-02 -0.168747D-01 -0.177854D-01 -0.202458D-01
     33  0.262665D-02  0.180652D-01 -0.188560D+00 -0.190093D-01 -0.256647D+00
               31            32            33 
     31  0.231042D+00
     32  0.200891D-01  0.162201D-01
     33  0.181909D+00  0.181817D-01  0.236655D+00
 FormGI is forming the generalized inverse of G from B-inverse, IUseBI=4.
 Leave Link  716 at Tue May 29 05:17:02 2018, MaxMem=   402653184 cpu:         0.1
 (Enter /sob/g09/l103.exe)

 GradGradGradGradGradGradGradGradGradGradGradGradGradGradGradGradGradGrad
 Berny optimization.
 Red2BG is reusing G-inverse.
 Internal  Forces:  Max     0.057971112 RMS     0.023368648
 Search for a saddle point.
 Step number   1 out of a maximum of   54
 All quantities printed in internal units (Hartrees-Bohrs-Radians)
 Swapping is turned off.
 Second derivative matrix not updated -- analytic derivatives used.
 ITU=  0
     Eigenvalues ---   -0.18950  -0.04716   0.00081   0.01080   0.01482
     Eigenvalues ---    0.02224   0.03182   0.03543   0.03803   0.04464
     Eigenvalues ---    0.06024   0.06625   0.09809   0.14043   0.16187
     Eigenvalues ---    0.16599   0.20516   0.24041   0.30473   0.30654
     Eigenvalues ---    0.31512   0.31911   0.32579   0.35677   0.37189
     Eigenvalues ---    0.40833   0.54658
 Eigenvectors required to have negative eigenvalues:
                          A9        R5        R7        D4        A7
   1                    0.40520  -0.35109   0.33535   0.25493   0.23105
                          A16       A8        D2        D13       A13
   1                   -0.22741  -0.21716   0.21494  -0.20495  -0.20135
 Eigenvalue     2 is  -4.72D-02 should be greater than     0.000000 Eigenvector:
                          A14       D6        D8        A12       R9
   1                   -0.56466  -0.37966  -0.36814  -0.28851   0.27390
                          D10       R5        D9        D12       D14
   1                   -0.18263   0.16761  -0.16369  -0.14601  -0.14284
 RFO step:  Lambda0=1.791727152D-05 Lambda=-1.17518005D-01.
 Linear search not attempted -- option 19 set.
 Maximum step size (   0.300) exceeded in Quadratic search.
    -- Step size scaled by   0.324
 Iteration  1 RMS(Cart)=  0.06795048 RMS(Int)=  0.00684389
 Iteration  2 RMS(Cart)=  0.00529162 RMS(Int)=  0.00341892
 Iteration  3 RMS(Cart)=  0.00005506 RMS(Int)=  0.00341850
 Iteration  4 RMS(Cart)=  0.00000070 RMS(Int)=  0.00341850
 ITry= 1 IFail=0 DXMaxC= 2.34D-01 DCOld= 1.00D+10 DXMaxT= 3.00D-01 DXLimC= 3.00D+00 Rises=F
 Variable       Old X    -DE/DX   Delta X   Delta X   Delta X     New X
                                 (Linear)    (Quad)   (Total)
    R1        2.90511  -0.01337   0.00000  -0.02485  -0.02495   2.88016
    R2        2.79569   0.01353   0.00000   0.00105   0.00136   2.79706
    R3        2.05187  -0.00367   0.00000  -0.00273  -0.00273   2.04914
    R4        2.05049   0.00033   0.00000  -0.00328  -0.00328   2.04720
    R5        3.42757   0.05797   0.00000  -0.00444  -0.00462   3.42296
    R6        2.06402  -0.00312   0.00000  -0.00453  -0.00453   2.05948
    R7        2.76464  -0.02718   0.00000  -0.03070  -0.03070   2.73394
    R8        2.05049  -0.01373   0.00000  -0.01965  -0.01965   2.03085
    R9        2.22988  -0.03391   0.00000  -0.11533  -0.11533   2.11455
   R10        2.52742   0.03404   0.00000   0.02189   0.02189   2.54931
   R11        1.83708  -0.00165   0.00000  -0.00324  -0.00324   1.83384
    A1        2.01793  -0.00588   0.00000   0.03556   0.03490   2.05284
    A2        2.02506  -0.00590   0.00000  -0.03703  -0.03591   1.98915
    A3        2.01109  -0.03219   0.00000  -0.02210  -0.02178   1.98931
    A4        1.99400   0.02611   0.00000   0.02353   0.02352   2.01752
    A5        2.01378  -0.00018   0.00000  -0.00232  -0.00227   2.01151
    A6        2.04039   0.00184   0.00000  -0.01573  -0.01516   2.02522
    A7        1.87169   0.01969   0.00000   0.01787   0.01831   1.89000
    A8        2.73390  -0.02827   0.00000  -0.05169  -0.05161   2.68229
    A9        1.32147   0.05148   0.00000   0.04637   0.04634   1.36781
   A10        2.21343  -0.02593   0.00000   0.00043   0.00000   2.21342
   A11        2.06510  -0.00736   0.00000   0.00160  -0.00164   2.06346
   A12        1.45624   0.05102   0.00000   0.14602   0.14237   1.59861
   A13        2.06089   0.00835   0.00000  -0.02190  -0.02186   2.03904
   A14        0.98925   0.05104   0.00000   0.20144   0.19918   1.18844
   A15        2.62909  -0.01827   0.00000  -0.04556  -0.06321   2.56588
   A16        1.87536   0.02911   0.00000   0.01595   0.01595   1.89131
   A17        1.87061   0.01265   0.00000   0.00697   0.00697   1.87758
    D1       -0.78548   0.01255   0.00000   0.03326   0.03349  -0.75199
    D2        2.88941   0.02778   0.00000   0.02837   0.02795   2.91736
    D3        1.65355  -0.00333   0.00000   0.02743   0.02780   1.68135
    D4       -0.95475   0.01190   0.00000   0.02254   0.02226  -0.93248
    D5        2.49580  -0.01557   0.00000  -0.01223  -0.01279   2.48301
    D6       -1.00960   0.00945   0.00000   0.09474   0.09469  -0.91490
    D7        0.10392  -0.00839   0.00000  -0.01036  -0.01111   0.09281
    D8        2.88171   0.01663   0.00000   0.09661   0.09637   2.97808
    D9        3.03654   0.01892   0.00000   0.06718   0.06032   3.09686
   D10       -0.69424  -0.00736   0.00000   0.01635   0.02244  -0.67180
   D11       -0.34989   0.00308   0.00000   0.04179   0.03608  -0.31381
   D12        2.20252  -0.02320   0.00000  -0.00904  -0.00181   2.20072
   D13        2.58566   0.01299   0.00000   0.04338   0.04405   2.62971
   D14       -2.97515   0.02998   0.00000   0.07020   0.07017  -2.90499
   D15        0.04609   0.01675   0.00000   0.04339   0.04275   0.08884
   D16        3.14098   0.00112   0.00000   0.00074   0.00074  -3.14147
         Item               Value     Threshold  Converged?
 Maximum Force            0.057971     0.000450     NO 
 RMS     Force            0.023369     0.000300     NO 
 Maximum Displacement     0.233534     0.001800     NO 
 RMS     Displacement     0.065918     0.001200     NO 
 Predicted change in Energy=-3.986638D-02
 GradGradGradGradGradGradGradGradGradGradGradGradGradGradGradGradGradGrad

 Leave Link  103 at Tue May 29 05:17:02 2018, MaxMem=   402653184 cpu:         1.2
 (Enter /sob/g09/l202.exe)
                          Input orientation:                          
 ---------------------------------------------------------------------
 Center     Atomic      Atomic             Coordinates (Angstroms)
 Number     Number       Type             X           Y           Z
 ---------------------------------------------------------------------
      1          6           0        1.414127   -0.780683   -0.106815
      2          6           0        0.155771   -0.066539    0.372217
      3          6           0        1.125641    0.255882   -1.123240
      4          1           0        2.330359   -0.611111    0.447800
      5          1           0        1.246863   -1.803810   -0.421207
      6          1           0       -0.009952   -0.060127    1.449355
      7          1           0        0.694259   -0.054345   -2.057371
      8          1           0        1.239584    1.073134   -0.367452
      9          6           0       -0.852013   -0.181386   -0.659399
     10          8           0       -2.065909   -0.168454   -0.071023
     11          1           0       -2.732284   -0.246084   -0.772197
 ---------------------------------------------------------------------
                    Distance matrix (angstroms):
                    1          2          3          4          5
     1  C    0.000000
     2  C    1.524118   0.000000
     3  C    1.480139   1.811351   0.000000
     4  H    1.084359   2.243013   2.161293   0.000000
     5  H    1.083332   2.199571   2.179421   1.830756   0.000000
     6  H    2.229096   1.089831   2.829784   2.604564   2.849389
     7  H    2.202372   2.488577   1.074678   3.043467   2.458257
     8  H    1.880168   1.737991   1.118972   2.165896   2.877455
     9  C    2.408298   1.446737   2.077852   3.396770   2.663507
    10  O    3.533661   2.267755   3.387213   4.448854   3.710994
    11  H    4.233350   3.111716   3.906249   5.220344   4.287576
                    6          7          8          9         10
     6  H    0.000000
     7  H    3.576741   0.000000
     8  H    2.479195   2.103429   0.000000
     9  C    2.273898   2.088402   2.456386   0.000000
    10  O    2.559344   3.402518   3.543402   1.349036   0.000000
    11  H    3.518659   3.664646   4.204746   1.884762   0.970426
                   11
    11  H    0.000000
 Stoichiometry    C4H6O
 Framework group  C1[X(C4H6O)]
 Deg. of freedom    27
 Full point group                 C1      NOp   1
 RotChk:  IX=0 Diff= 9.47D-02
 Largest Abelian subgroup         C1      NOp   1
 Largest concise Abelian subgroup C1      NOp   1
                         Standard orientation:                         
 ---------------------------------------------------------------------
 Center     Atomic      Atomic             Coordinates (Angstroms)
 Number     Number       Type             X           Y           Z
 ---------------------------------------------------------------------
      1          6           0       -1.497992   -0.426850    0.388811
      2          6           0       -0.179517   -0.602483   -0.355308
      3          6           0       -1.219030    0.877366   -0.253071
      4          1           0       -2.370195   -0.935215   -0.006990
      5          1           0       -1.400727   -0.447881    1.467563
      6          1           0        0.049831   -1.613969   -0.690014
      7          1           0       -0.859699    1.680848    0.363556
      8          1           0       -1.247225    0.416968   -1.272550
      9          6           0        0.758431    0.378791    0.145095
     10          8           0        2.004186   -0.125337    0.027422
     11          1           0        2.623172    0.541006    0.365904
 ---------------------------------------------------------------------
 Rotational constants (GHZ):     15.0213993      3.5598550      3.2015466
 Leave Link  202 at Tue May 29 05:17:03 2018, MaxMem=   402653184 cpu:         0.0
 (Enter /sob/g09/l301.exe)
 Standard basis: STO-3G (5D, 7F)
 Ernie: Thresh=  0.10000D-02 Tol=  0.10000D-05 Strict=F.
 There are    31 symmetry adapted cartesian basis functions of A   symmetry.
 There are    31 symmetry adapted basis functions of A   symmetry.
    31 basis functions,    93 primitive gaussians,    31 cartesian basis functions
    19 alpha electrons       19 beta electrons
       nuclear repulsion energy       163.8839468072 Hartrees.
 IExCor=    0 DFT=F Ex=HF Corr=None ExCW=0 ScaHFX=  1.000000
 ScaDFX=  1.000000  1.000000  1.000000  1.000000 ScalE2=  1.000000  1.000000
 IRadAn=      0 IRanWt=     -1 IRanGd=            0 ICorTp=0 IEmpDi=  4
 NAtoms=   11 NActive=   11 NUniq=   11 SFac= 1.00D+00 NAtFMM=   60 NAOKFM=F Big=F
 Integral buffers will be    131072 words long.
 Raffenetti 1 integral format.
 Two-electron integral symmetry is turned on.
 Leave Link  301 at Tue May 29 05:17:03 2018, MaxMem=   402653184 cpu:         0.1
 (Enter /sob/g09/l402.exe)
 External calculation of energy and first derivatives.
 Running external command "./xtb.sh R"
         input file       "/sob/g09/scratch/Gau-31554.EIn"
         output file      "/sob/g09/scratch/Gau-31554.EOu"
         message file     "/sob/g09/scratch/Gau-31554.EMs"
         fchk file        "/sob/g09/scratch/Gau-31554.EFC"
         mat. el file     "/sob/g09/scratch/Gau-31554.EUF"
Generating mol.tmp
Generating mol.xyz via genxyz
Running: xtb mol.xyz -chrg 0 -uhf 0 -grad > xtbout
xtb running finished!
Extracting data from xtb outputs via extderi
 Recovered energy= -15.4358303072     dipole=      0.000000000000      0.000000000000      0.000000000000
 Energy=    -15.4358303     NIter=   0.
 Dipole moment=       0.000000       0.000000       0.000000
 Leave Link  402 at Tue May 29 05:17:03 2018, MaxMem=   402653184 cpu:         0.6
 (Enter /sob/g09/l716.exe)
 Dipole        = 0.00000000D+00 0.00000000D+00 0.00000000D+00
 ***** Axes restored to original set *****
 -------------------------------------------------------------------
 Center     Atomic                   Forces (Hartrees/Bohr)
 Number     Number              X              Y              Z
 -------------------------------------------------------------------
      1        6          -0.009436635   -0.010549698   -0.016807296
      2        6          -0.015627850   -0.049575331   -0.029909679
      3        6           0.024741101    0.024713135    0.052919606
      4        1          -0.005713245   -0.004041027    0.005484275
      5        1           0.006246558   -0.001934140    0.001683682
      6        1          -0.000721248    0.016939617   -0.002163015
      7        1           0.005991098    0.019161780    0.001629440
      8        1           0.009359098    0.020613303   -0.055786988
      9        6           0.012560690   -0.036688245    0.045108794
     10        8          -0.024641518    0.021524753   -0.006735433
     11        1          -0.002758049   -0.000164148    0.004576613
 -------------------------------------------------------------------
 Cartesian Forces:  Max     0.055786988 RMS     0.022851947
 Leave Link  716 at Tue May 29 05:17:03 2018, MaxMem=   402653184 cpu:         0.0
 (Enter /sob/g09/l103.exe)

 GradGradGradGradGradGradGradGradGradGradGradGradGradGradGradGradGradGrad
 Berny optimization.
 FormGI is forming the generalized inverse of G from B-inverse, IUseBI=4.
 Internal  Forces:  Max     0.046551964 RMS     0.018581007
 Search for a saddle point.
 Step number   2 out of a maximum of   54
 All quantities printed in internal units (Hartrees-Bohrs-Radians)
 Swapping is turned off.
 Update second derivatives using D2CorX and points    1    2
 ITU=  0  0
     Eigenvalues ---   -0.18803  -0.01786   0.00354   0.01077   0.01585
     Eigenvalues ---    0.02190   0.03316   0.03645   0.03818   0.04548
     Eigenvalues ---    0.06025   0.06667   0.10524   0.14681   0.16219
     Eigenvalues ---    0.16906   0.20477   0.24046   0.30472   0.30647
     Eigenvalues ---    0.31511   0.31926   0.32587   0.35584   0.37304
     Eigenvalues ---    0.40830   0.54661
 Eigenvectors required to have negative eigenvalues:
                          A9        R5        R7        D4        A8
   1                    0.41129  -0.35896   0.33131   0.26097  -0.22842
                          A16       A7        D2        A13       D13
   1                   -0.22663   0.22570   0.21735  -0.21177  -0.20121
 Eigenvalue     2 is  -1.79D-02 should be greater than     0.000000 Eigenvector:
                          A14       D10       D6        D8        D14
   1                   -0.42584  -0.38208  -0.36605  -0.35503  -0.25409
                          D9        R5        D13       D12       D3
   1                   -0.22551   0.20464  -0.20106  -0.19876  -0.18773
 RFO step:  Lambda0=4.745596583D-04 Lambda=-8.54121685D-02.
 Linear search not attempted -- option 19 set.
 Maximum step size (   0.300) exceeded in Quadratic search.
    -- Step size scaled by   0.369
 Iteration  1 RMS(Cart)=  0.05804397 RMS(Int)=  0.00709215
 Iteration  2 RMS(Cart)=  0.00511311 RMS(Int)=  0.00382646
 Iteration  3 RMS(Cart)=  0.00003085 RMS(Int)=  0.00382635
 Iteration  4 RMS(Cart)=  0.00000024 RMS(Int)=  0.00382635
 ITry= 1 IFail=0 DXMaxC= 2.16D-01 DCOld= 1.00D+10 DXMaxT= 3.00D-01 DXLimC= 3.00D+00 Rises=F
 Variable       Old X    -DE/DX   Delta X   Delta X   Delta X     New X
                                 (Linear)    (Quad)   (Total)
    R1        2.88016  -0.00833   0.00000  -0.02233  -0.02223   2.85794
    R2        2.79706   0.00930   0.00000   0.00215   0.00298   2.80003
    R3        2.04914  -0.00265   0.00000  -0.00260  -0.00260   2.04654
    R4        2.04720   0.00037   0.00000  -0.00301  -0.00301   2.04419
    R5        3.42296   0.03626   0.00000  -0.02545  -0.02622   3.39674
    R6        2.05948  -0.00193   0.00000  -0.00047  -0.00047   2.05902
    R7        2.73394  -0.01907   0.00000  -0.04507  -0.04507   2.68887
    R8        2.03085  -0.00935   0.00000  -0.01451  -0.01451   2.01634
    R9        2.11455  -0.02167   0.00000  -0.06828  -0.06828   2.04627
   R10        2.54931   0.02392   0.00000   0.01925   0.01925   2.56856
   R11        1.83384  -0.00140   0.00000  -0.00318  -0.00318   1.83066
    A1        2.05284  -0.00371   0.00000   0.02691   0.02737   2.08021
    A2        1.98915  -0.00321   0.00000  -0.02057  -0.02058   1.96858
    A3        1.98931  -0.02345   0.00000  -0.00957  -0.00978   1.97952
    A4        2.01752   0.02123   0.00000   0.01372   0.01432   2.03184
    A5        2.01151  -0.00095   0.00000  -0.00388  -0.00395   2.00756
    A6        2.02522   0.00048   0.00000  -0.01078  -0.00879   2.01643
    A7        1.89000   0.01677   0.00000   0.01051   0.00971   1.89971
    A8        2.68229  -0.02401   0.00000  -0.05695  -0.05753   2.62476
    A9        1.36781   0.04042   0.00000   0.02146   0.02117   1.38898
   A10        2.21342  -0.01920   0.00000   0.02339   0.02199   2.23541
   A11        2.06346  -0.00589   0.00000   0.01025   0.00423   2.06769
   A12        1.59861   0.04500   0.00000   0.14414   0.13645   1.73506
   A13        2.03904   0.00610   0.00000   0.00883   0.00544   2.04448
   A14        1.18844   0.04655   0.00000   0.21876   0.21346   1.40190
   A15        2.56588  -0.02576   0.00000  -0.07176  -0.09101   2.47487
   A16        1.89131   0.02118   0.00000   0.02829   0.02829   1.91960
   A17        1.87758   0.00942   0.00000   0.00633   0.00633   1.88391
    D1       -0.75199   0.01222   0.00000   0.05564   0.05588  -0.69611
    D2        2.91736   0.02151   0.00000   0.01201   0.01187   2.92923
    D3        1.68135   0.00154   0.00000   0.05657   0.05706   1.73841
    D4       -0.93248   0.01083   0.00000   0.01294   0.01305  -0.91944
    D5        2.48301  -0.01124   0.00000  -0.03278  -0.03244   2.45058
    D6       -0.91490   0.01328   0.00000   0.13486   0.13497  -0.77994
    D7        0.09281  -0.00680   0.00000  -0.03124  -0.03118   0.06164
    D8        2.97808   0.01772   0.00000   0.13640   0.13623   3.11431
    D9        3.09686   0.01482   0.00000   0.08544   0.07873  -3.10759
   D10       -0.67180   0.00031   0.00000   0.07228   0.07647  -0.59533
   D11       -0.31381   0.00146   0.00000   0.02135   0.01651  -0.29731
   D12        2.20072  -0.01305   0.00000   0.00818   0.01424   2.21496
   D13        2.62971   0.01326   0.00000   0.09178   0.09241   2.72212
   D14       -2.90499   0.02645   0.00000   0.11044   0.11189  -2.79310
   D15        0.08884   0.01416   0.00000   0.05609   0.05401   0.14285
   D16       -3.14147   0.00080   0.00000   0.00385   0.00385  -3.13761
         Item               Value     Threshold  Converged?
 Maximum Force            0.046552     0.000450     NO 
 RMS     Force            0.018581     0.000300     NO 
 Maximum Displacement     0.215843     0.001800     NO 
 RMS     Displacement     0.058141     0.001200     NO 
 Predicted change in Energy=-3.558008D-02
 GradGradGradGradGradGradGradGradGradGradGradGradGradGradGradGradGradGrad

 Leave Link  103 at Tue May 29 05:17:04 2018, MaxMem=   402653184 cpu:         2.0
 (Enter /sob/g09/l202.exe)
                          Input orientation:                          
 ---------------------------------------------------------------------
 Center     Atomic      Atomic             Coordinates (Angstroms)
 Number     Number       Type             X           Y           Z
 ---------------------------------------------------------------------
      1          6           0        1.405810   -0.787206   -0.093007
      2          6           0        0.136819   -0.113624    0.379396
      3          6           0        1.106815    0.273399   -1.083560
      4          1           0        2.326741   -0.620087    0.451795
      5          1           0        1.243776   -1.806823   -0.415947
      6          1           0       -0.002996   -0.080048    1.459451
      7          1           0        0.699316   -0.012360   -2.027370
      8          1           0        1.329273    1.145630   -0.481671
      9          6           0       -0.856872   -0.245499   -0.630456
     10          8           0       -2.095414   -0.149899   -0.078769
     11          1           0       -2.746821   -0.247008   -0.789190
 ---------------------------------------------------------------------
                    Distance matrix (angstroms):
                    1          2          3          4          5
     1  C    0.000000
     2  C    1.512355   0.000000
     3  C    1.481714   1.797476   0.000000
     4  H    1.082983   2.248890   2.154960   0.000000
     5  H    1.081741   2.173672   2.189016   1.825960   0.000000
     6  H    2.212450   1.089584   2.797054   2.595128   2.837835
     7  H    2.200291   2.473698   1.067001   3.027227   2.472492
     8  H    1.973011   1.936260   1.082841   2.232500   2.954421
     9  C    2.387892   1.422889   2.081015   3.383337   2.626112
    10  O    3.558782   2.279055   3.382759   4.478619   3.742896
    11  H    4.245094   3.114283   3.899742   5.236435   4.300836
                    6          7          8          9         10
     6  H    0.000000
     7  H    3.557491   0.000000
     8  H    2.654276   2.031495   0.000000
     9  C    2.263667   2.104149   2.595497   0.000000
    10  O    2.597924   3.409763   3.683640   1.359222   0.000000
    11  H    3.551455   3.669334   4.318397   1.896604   0.968741
                   11
    11  H    0.000000
 Stoichiometry    C4H6O
 Framework group  C1[X(C4H6O)]
 Deg. of freedom    27
 Full point group                 C1      NOp   1
 RotChk:  IX=0 Diff= 7.44D-02
 Largest Abelian subgroup         C1      NOp   1
 Largest concise Abelian subgroup C1      NOp   1
                         Standard orientation:                         
 ---------------------------------------------------------------------
 Center     Atomic      Atomic             Coordinates (Angstroms)
 Number     Number       Type             X           Y           Z
 ---------------------------------------------------------------------
      1          6           0       -1.501574   -0.441838    0.369289
      2          6           0       -0.179288   -0.592823   -0.349030
      3          6           0       -1.206519    0.877894   -0.236290
      4          1           0       -2.383488   -0.916819   -0.042381
      5          1           0       -1.404592   -0.510469    1.444485
      6          1           0        0.019095   -1.580099   -0.765111
      7          1           0       -0.863469    1.663685    0.398801
      8          1           0       -1.355827    0.631154   -1.280019
      9          6           0        0.752150    0.329797    0.203969
     10          8           0        2.021348   -0.107950   -0.008163
     11          1           0        2.628879    0.537971    0.381903
 ---------------------------------------------------------------------
 Rotational constants (GHZ):     15.1800558      3.5313027      3.1863232
 Leave Link  202 at Tue May 29 05:17:04 2018, MaxMem=   402653184 cpu:         0.1
 (Enter /sob/g09/l301.exe)
 Standard basis: STO-3G (5D, 7F)
 Ernie: Thresh=  0.10000D-02 Tol=  0.10000D-05 Strict=F.
 There are    31 symmetry adapted cartesian basis functions of A   symmetry.
 There are    31 symmetry adapted basis functions of A   symmetry.
    31 basis functions,    93 primitive gaussians,    31 cartesian basis functions
    19 alpha electrons       19 beta electrons
       nuclear repulsion energy       163.8209511849 Hartrees.
 IExCor=    0 DFT=F Ex=HF Corr=None ExCW=0 ScaHFX=  1.000000
 ScaDFX=  1.000000  1.000000  1.000000  1.000000 ScalE2=  1.000000  1.000000
 IRadAn=      0 IRanWt=     -1 IRanGd=            0 ICorTp=0 IEmpDi=  4
 NAtoms=   11 NActive=   11 NUniq=   11 SFac= 1.00D+00 NAtFMM=   60 NAOKFM=F Big=F
 Integral buffers will be    131072 words long.
 Raffenetti 1 integral format.
 Two-electron integral symmetry is turned on.
 Leave Link  301 at Tue May 29 05:17:04 2018, MaxMem=   402653184 cpu:         0.1
 (Enter /sob/g09/l402.exe)
 External calculation of energy and first derivatives.
 Running external command "./xtb.sh R"
         input file       "/sob/g09/scratch/Gau-31554.EIn"
         output file      "/sob/g09/scratch/Gau-31554.EOu"
         message file     "/sob/g09/scratch/Gau-31554.EMs"
         fchk file        "/sob/g09/scratch/Gau-31554.EFC"
         mat. el file     "/sob/g09/scratch/Gau-31554.EUF"
Generating mol.tmp
Generating mol.xyz via genxyz
Running: xtb mol.xyz -chrg 0 -uhf 0 -grad > xtbout
xtb running finished!
Extracting data from xtb outputs via extderi
 Recovered energy= -15.4672590597     dipole=      0.000000000000      0.000000000000      0.000000000000
 Energy=    -15.4672591     NIter=   0.
 Dipole moment=       0.000000       0.000000       0.000000
 Leave Link  402 at Tue May 29 05:17:04 2018, MaxMem=   402653184 cpu:         0.8
 (Enter /sob/g09/l716.exe)
 Dipole        = 0.00000000D+00 0.00000000D+00 0.00000000D+00
 ***** Axes restored to original set *****
 -------------------------------------------------------------------
 Center     Atomic                   Forces (Hartrees/Bohr)
 Number     Number              X              Y              Z
 -------------------------------------------------------------------
      1        6          -0.004475892   -0.008070784   -0.016268294
      2        6          -0.002390838   -0.040162538   -0.025569024
      3        6           0.008725492    0.011158297    0.050987143
      4        1          -0.005626954   -0.003615161    0.007336745
      5        1           0.007493635   -0.001679947   -0.001536588
      6        1          -0.001478889    0.019619549   -0.001544308
      7        1           0.004914104    0.017077107   -0.002598693
      8        1           0.009820289    0.019184693   -0.038626448
      9        6          -0.000450269   -0.032664278    0.031336525
     10        8          -0.014567230    0.019104666   -0.006679403
     11        1          -0.001963447    0.000048396    0.003162345
 -------------------------------------------------------------------
 Cartesian Forces:  Max     0.050987143 RMS     0.018204144
 Leave Link  716 at Tue May 29 05:17:04 2018, MaxMem=   402653184 cpu:         0.0
 (Enter /sob/g09/l103.exe)

 GradGradGradGradGradGradGradGradGradGradGradGradGradGradGradGradGradGrad
 Berny optimization.
 FormGI is forming the generalized inverse of G from B-inverse, IUseBI=4.
 Internal  Forces:  Max     0.032049822 RMS     0.013325255
 Search for a saddle point.
 Step number   3 out of a maximum of   54
 All quantities printed in internal units (Hartrees-Bohrs-Radians)
 Swapping is turned off.
 Update second derivatives using D2CorX and points    2    3
 ITU=  0  0  0
     Eigenvalues ---   -0.18103  -0.00756   0.01067   0.01238   0.01977
     Eigenvalues ---    0.02209   0.03448   0.03771   0.04150   0.04744
     Eigenvalues ---    0.05995   0.06701   0.11722   0.15241   0.16246
     Eigenvalues ---    0.17730   0.20480   0.24055   0.30467   0.30658
     Eigenvalues ---    0.31505   0.31970   0.32604   0.35420   0.37503
     Eigenvalues ---    0.40818   0.54630
 Eigenvectors required to have negative eigenvalues:
                          A9        R5        R7        D4        A8
   1                    0.41354  -0.37549   0.32017   0.26717  -0.24345
                          A16       A7        D2        A13       A4
   1                   -0.22247   0.21994   0.21796  -0.20994   0.19183
 Eigenvalue     2 is  -7.56D-03 should be greater than     0.000000 Eigenvector:
                          D10       D14       D13       D9        D3
   1                   -0.46842  -0.43177  -0.38173  -0.35705  -0.29310
                          D1        A8        D5        A10       R5
   1                   -0.22544   0.17914   0.14928  -0.14445   0.14337
 RFO step:  Lambda0=2.906191671D-03 Lambda=-5.10247255D-02.
 Linear search not attempted -- option 19 set.
 Maximum step size (   0.300) exceeded in Quadratic search.
    -- Step size scaled by   0.564
 Iteration  1 RMS(Cart)=  0.07759961 RMS(Int)=  0.01908139
 Iteration  2 RMS(Cart)=  0.02337329 RMS(Int)=  0.00539958
 Iteration  3 RMS(Cart)=  0.00055723 RMS(Int)=  0.00537047
 Iteration  4 RMS(Cart)=  0.00000495 RMS(Int)=  0.00537047
 Iteration  5 RMS(Cart)=  0.00000005 RMS(Int)=  0.00537047
 ITry= 1 IFail=0 DXMaxC= 2.38D-01 DCOld= 1.00D+10 DXMaxT= 3.00D-01 DXLimC= 3.00D+00 Rises=F
 Variable       Old X    -DE/DX   Delta X   Delta X   Delta X     New X
                                 (Linear)    (Quad)   (Total)
    R1        2.85794  -0.00086   0.00000  -0.02181  -0.02263   2.83531
    R2        2.80003   0.00568   0.00000   0.01779   0.02230   2.82233
    R3        2.04654  -0.00165   0.00000  -0.00117  -0.00117   2.04537
    R4        2.04419   0.00092   0.00000  -0.00243  -0.00243   2.04177
    R5        3.39674   0.01689   0.00000  -0.03700  -0.04010   3.35663
    R6        2.05902  -0.00074   0.00000   0.00557   0.00557   2.06459
    R7        2.68887  -0.00663   0.00000  -0.06455  -0.06455   2.62432
    R8        2.01634  -0.00415   0.00000  -0.00185  -0.00185   2.01449
    R9        2.04627  -0.00400   0.00000   0.03175   0.03175   2.07803
   R10        2.56856   0.01498   0.00000   0.01803   0.01803   2.58658
   R11        1.83066  -0.00100   0.00000  -0.00428  -0.00428   1.82638
    A1        2.08021  -0.00487   0.00000  -0.00916  -0.00719   2.07302
    A2        1.96858   0.00262   0.00000   0.02719   0.02629   1.99487
    A3        1.97952  -0.01603   0.00000   0.00179   0.00193   1.98145
    A4        2.03184   0.01745   0.00000   0.00925   0.01027   2.04211
    A5        2.00756  -0.00185   0.00000  -0.01258  -0.01291   1.99465
    A6        2.01643   0.00022   0.00000   0.01998   0.02811   2.04454
    A7        1.89971   0.01470   0.00000  -0.01054  -0.01530   1.88441
    A8        2.62476  -0.02027   0.00000  -0.10216  -0.10509   2.51967
    A9        1.38898   0.03146   0.00000  -0.02933  -0.03425   1.35473
   A10        2.23541  -0.01483   0.00000   0.07911   0.06328   2.29869
   A11        2.06769  -0.00475   0.00000   0.01923   0.01600   2.08369
   A12        1.73506   0.03205   0.00000   0.11721   0.10890   1.84397
   A13        2.04448   0.00536   0.00000   0.07869   0.07471   2.11919
   A14        1.40190   0.02994   0.00000   0.15563   0.15055   1.55245
   A15        2.47487  -0.02478   0.00000  -0.11099  -0.12581   2.34907
   A16        1.91960   0.01301   0.00000   0.05498   0.05498   1.97458
   A17        1.88391   0.00651   0.00000   0.00624   0.00624   1.89015
    D1       -0.69611   0.01135   0.00000   0.14871   0.14919  -0.54692
    D2        2.92923   0.01572   0.00000  -0.02323  -0.02427   2.90496
    D3        1.73841   0.00535   0.00000   0.15175   0.15304   1.89145
    D4       -0.91944   0.00972   0.00000  -0.02019  -0.02042  -0.93986
    D5        2.45058  -0.00674   0.00000  -0.07395  -0.07206   2.37852
    D6       -0.77994   0.01189   0.00000   0.12131   0.12149  -0.65845
    D7        0.06164  -0.00500   0.00000  -0.06655  -0.06547  -0.00383
    D8        3.11431   0.01363   0.00000   0.12871   0.12808  -3.04079
    D9       -3.10759   0.01239   0.00000   0.18699   0.17468  -2.93291
   D10       -0.59533   0.00400   0.00000   0.18575   0.18012  -0.41521
   D11       -0.29731  -0.00029   0.00000  -0.02686  -0.02377  -0.32108
   D12        2.21496  -0.00868   0.00000  -0.02810  -0.01833   2.19663
   D13        2.72212   0.01269   0.00000   0.27484   0.27941   3.00152
   D14       -2.79310   0.02325   0.00000   0.28174   0.28927  -2.50383
   D15        0.14285   0.01055   0.00000   0.10165   0.08956   0.23242
   D16       -3.13761   0.00076   0.00000   0.02629   0.02629  -3.11133
         Item               Value     Threshold  Converged?
 Maximum Force            0.032050     0.000450     NO 
 RMS     Force            0.013325     0.000300     NO 
 Maximum Displacement     0.238418     0.001800     NO 
 RMS     Displacement     0.092932     0.001200     NO 
 Predicted change in Energy=-3.135931D-02
 GradGradGradGradGradGradGradGradGradGradGradGradGradGradGradGradGradGrad

 Leave Link  103 at Tue May 29 05:17:05 2018, MaxMem=   402653184 cpu:         1.9
 (Enter /sob/g09/l202.exe)
                          Input orientation:                          
 ---------------------------------------------------------------------
 Center     Atomic      Atomic             Coordinates (Angstroms)
 Number     Number       Type             X           Y           Z
 ---------------------------------------------------------------------
      1          6           0        1.411776   -0.812354   -0.086835
      2          6           0        0.131011   -0.223185    0.426649
      3          6           0        1.006894    0.263948   -1.039847
      4          1           0        2.332183   -0.598362    0.440960
      5          1           0        1.324734   -1.832211   -0.432818
      6          1           0        0.050439   -0.069063    1.505252
      7          1           0        0.656100   -0.001851   -2.010773
      8          1           0        1.266902    1.211161   -0.545478
      9          6           0       -0.834797   -0.371664   -0.560134
     10          8           0       -2.090958   -0.027455   -0.139318
     11          1           0       -2.707837   -0.182488   -0.866988
 ---------------------------------------------------------------------
                    Distance matrix (angstroms):
                    1          2          3          4          5
     1  C    0.000000
     2  C    1.500382   0.000000
     3  C    1.493515   1.776254   0.000000
     4  H    1.082363   2.232963   2.166277   0.000000
     5  H    1.080457   2.180051   2.205308   1.816817   0.000000
     6  H    2.222715   1.092534   2.739203   2.572787   2.913526
     7  H    2.220248   2.503145   1.066023   3.029204   2.507435
     8  H    2.079893   2.071865   1.099644   2.319970   3.046005
     9  C    2.337800   1.388731   2.006478   3.329166   2.610168
    10  O    3.589982   2.301256   3.239222   4.497426   3.874305
    11  H    4.239880   3.119970   3.745452   5.223551   4.378552
                    6          7          8          9         10
     6  H    0.000000
     7  H    3.568442   0.000000
     8  H    2.706335   1.997890   0.000000
     9  C    2.267385   2.112792   2.631100   0.000000
    10  O    2.700357   3.324053   3.601994   1.368762   0.000000
    11  H    3.639846   3.557660   4.224236   1.907413   0.966477
                   11
    11  H    0.000000
 Stoichiometry    C4H6O
 Framework group  C1[X(C4H6O)]
 Deg. of freedom    27
 Full point group                 C1      NOp   1
 RotChk:  IX=0 Diff= 7.82D-02
 Largest Abelian subgroup         C1      NOp   1
 Largest concise Abelian subgroup C1      NOp   1
                         Standard orientation:                         
 ---------------------------------------------------------------------
 Center     Atomic      Atomic             Coordinates (Angstroms)
 Number     Number       Type             X           Y           Z
 ---------------------------------------------------------------------
      1          6           0       -1.544515   -0.385924    0.331858
      2          6           0       -0.205987   -0.646994   -0.293705
      3          6           0       -1.070559    0.904108   -0.252750
      4          1           0       -2.430403   -0.779049   -0.149978
      5          1           0       -1.554016   -0.462008    1.409591
      6          1           0       -0.087206   -1.583112   -0.844345
      7          1           0       -0.766835    1.692645    0.397146
      8          1           0       -1.236135    0.817326   -1.336388
      9          6           0        0.720047    0.194204    0.309138
     10          8           0        2.010743   -0.075778   -0.057909
     11          1           0        2.594739    0.528067    0.420000
 ---------------------------------------------------------------------
 Rotational constants (GHZ):     15.0734169      3.6064571      3.2540354
 Leave Link  202 at Tue May 29 05:17:05 2018, MaxMem=   402653184 cpu:         0.0
 (Enter /sob/g09/l301.exe)
 Standard basis: STO-3G (5D, 7F)
 Ernie: Thresh=  0.10000D-02 Tol=  0.10000D-05 Strict=F.
 There are    31 symmetry adapted cartesian basis functions of A   symmetry.
 There are    31 symmetry adapted basis functions of A   symmetry.
    31 basis functions,    93 primitive gaussians,    31 cartesian basis functions
    19 alpha electrons       19 beta electrons
       nuclear repulsion energy       164.5293184000 Hartrees.
 IExCor=    0 DFT=F Ex=HF Corr=None ExCW=0 ScaHFX=  1.000000
 ScaDFX=  1.000000  1.000000  1.000000  1.000000 ScalE2=  1.000000  1.000000
 IRadAn=      0 IRanWt=     -1 IRanGd=            0 ICorTp=0 IEmpDi=  4
 NAtoms=   11 NActive=   11 NUniq=   11 SFac= 1.00D+00 NAtFMM=   60 NAOKFM=F Big=F
 Integral buffers will be    131072 words long.
 Raffenetti 1 integral format.
 Two-electron integral symmetry is turned on.
 Leave Link  301 at Tue May 29 05:17:05 2018, MaxMem=   402653184 cpu:         0.1
 (Enter /sob/g09/l402.exe)
 External calculation of energy and first derivatives.
 Running external command "./xtb.sh R"
         input file       "/sob/g09/scratch/Gau-31554.EIn"
         output file      "/sob/g09/scratch/Gau-31554.EOu"
         message file     "/sob/g09/scratch/Gau-31554.EMs"
         fchk file        "/sob/g09/scratch/Gau-31554.EFC"
         mat. el file     "/sob/g09/scratch/Gau-31554.EUF"
Generating mol.tmp
Generating mol.xyz via genxyz
Running: xtb mol.xyz -chrg 0 -uhf 0 -grad > xtbout
xtb running finished!
Extracting data from xtb outputs via extderi
 Recovered energy= -15.4959379031     dipole=      0.000000000000      0.000000000000      0.000000000000
 Energy=    -15.4959379     NIter=   0.
 Dipole moment=       0.000000       0.000000       0.000000
 Leave Link  402 at Tue May 29 05:17:06 2018, MaxMem=   402653184 cpu:         0.8
 (Enter /sob/g09/l716.exe)
 Dipole        = 0.00000000D+00 0.00000000D+00 0.00000000D+00
 ***** Axes restored to original set *****
 -------------------------------------------------------------------
 Center     Atomic                   Forces (Hartrees/Bohr)
 Number     Number              X              Y              Z
 -------------------------------------------------------------------
      1        6          -0.000291676   -0.000585585   -0.010824551
      2        6           0.013460427   -0.031055255   -0.005289453
      3        6          -0.002736388    0.010830946    0.045063119
      4        1          -0.003308576   -0.003337173    0.006120422
      5        1           0.005014924   -0.000129522   -0.003070412
      6        1          -0.003300300    0.016614751   -0.003067450
      7        1           0.005904290    0.014332347   -0.004124939
      8        1           0.002640093    0.001252480   -0.032285029
      9        6          -0.012608924   -0.022731601    0.012799339
     10        8          -0.003322793    0.014585816   -0.006611319
     11        1          -0.001451077    0.000222796    0.001290274
 -------------------------------------------------------------------
 Cartesian Forces:  Max     0.045063119 RMS     0.013768831
 Leave Link  716 at Tue May 29 05:17:06 2018, MaxMem=   402653184 cpu:         0.1
 (Enter /sob/g09/l103.exe)

 GradGradGradGradGradGradGradGradGradGradGradGradGradGradGradGradGradGrad
 Berny optimization.
 FormGI is forming the generalized inverse of G from B-inverse, IUseBI=4.
 Internal  Forces:  Max     0.019561533 RMS     0.008553027
 Search for a saddle point.
 Step number   4 out of a maximum of   54
 All quantities printed in internal units (Hartrees-Bohrs-Radians)
 Swapping is turned off.
 Update second derivatives using D2CorX and points    3    4
 ITU=  0  0  0  0
     Eigenvalues ---   -0.17702   0.00024   0.01061   0.01216   0.02131
     Eigenvalues ---    0.02308   0.03524   0.03767   0.04128   0.04590
     Eigenvalues ---    0.05956   0.06581   0.11887   0.15050   0.16243
     Eigenvalues ---    0.18353   0.20784   0.23756   0.30455   0.30617
     Eigenvalues ---    0.31490   0.31961   0.32583   0.35324   0.37378
     Eigenvalues ---    0.40807   0.54599
 Eigenvectors required to have negative eigenvalues:
                          A9        R5        R7        D4        A8
   1                   -0.41327   0.38986  -0.31317  -0.26682   0.25111
                          A16       A7        D2        A13       A4
   1                    0.21976  -0.21892  -0.21480   0.20121  -0.19771
 RFO step:  Lambda0=1.476326098D-03 Lambda=-3.48058783D-02.
 Linear search not attempted -- option 19 set.
 Maximum step size (   0.300) exceeded in Quadratic search.
    -- Step size scaled by   0.715
 Iteration  1 RMS(Cart)=  0.08561924 RMS(Int)=  0.01402355
 Iteration  2 RMS(Cart)=  0.01889096 RMS(Int)=  0.00438116
 Iteration  3 RMS(Cart)=  0.00024858 RMS(Int)=  0.00437384
 Iteration  4 RMS(Cart)=  0.00000210 RMS(Int)=  0.00437384
 Iteration  5 RMS(Cart)=  0.00000001 RMS(Int)=  0.00437384
 ITry= 1 IFail=0 DXMaxC= 2.57D-01 DCOld= 1.00D+10 DXMaxT= 3.00D-01 DXLimC= 3.00D+00 Rises=F
 Variable       Old X    -DE/DX   Delta X   Delta X   Delta X     New X
                                 (Linear)    (Quad)   (Total)
    R1        2.83531  -0.00020   0.00000  -0.02759  -0.02829   2.80702
    R2        2.82233   0.00322   0.00000   0.01546   0.01836   2.84069
    R3        2.04537  -0.00049   0.00000   0.00078   0.00078   2.04615
    R4        2.04177   0.00070   0.00000  -0.00109  -0.00109   2.04068
    R5        3.35663   0.00504   0.00000  -0.04420  -0.04610   3.31054
    R6        2.06459  -0.00044   0.00000  -0.00029  -0.00029   2.06430
    R7        2.62432   0.00762   0.00000   0.00475   0.00475   2.62907
    R8        2.01449  -0.00176   0.00000   0.00266   0.00266   2.01716
    R9        2.07803  -0.01281   0.00000  -0.05847  -0.05847   2.01955
   R10        2.58658   0.00647   0.00000   0.00283   0.00283   2.58941
   R11        1.82638  -0.00008   0.00000  -0.00017  -0.00017   1.82621
    A1        2.07302  -0.00363   0.00000  -0.02454  -0.02270   2.05032
    A2        1.99487   0.00334   0.00000   0.03834   0.03741   2.03228
    A3        1.98145  -0.00731   0.00000   0.01493   0.01510   1.99655
    A4        2.04211   0.00901   0.00000   0.00035   0.00091   2.04303
    A5        1.99465  -0.00143   0.00000  -0.01240  -0.01258   1.98207
    A6        2.04454   0.00172   0.00000   0.02640   0.02947   2.07401
    A7        1.88441   0.00873   0.00000   0.00420  -0.00200   1.88241
    A8        2.51967  -0.01296   0.00000  -0.09778  -0.10042   2.41925
    A9        1.35473   0.01568   0.00000  -0.04683  -0.05296   1.30176
   A10        2.29869  -0.00873   0.00000   0.03995   0.02098   2.31967
   A11        2.08369  -0.00100   0.00000   0.02043   0.01873   2.10242
   A12        1.84397   0.01897   0.00000   0.10979   0.10423   1.94820
   A13        2.11919   0.00582   0.00000   0.10120   0.09849   2.21768
   A14        1.55245   0.01730   0.00000   0.13197   0.12825   1.68069
   A15        2.34907  -0.01956   0.00000  -0.15387  -0.16244   2.18662
   A16        1.97458   0.00488   0.00000   0.02560   0.02560   2.00019
   A17        1.89015   0.00348   0.00000   0.00695   0.00695   1.89710
    D1       -0.54692   0.00992   0.00000   0.15073   0.15135  -0.39557
    D2        2.90496   0.00708   0.00000  -0.04624  -0.04738   2.85758
    D3        1.89145   0.00711   0.00000   0.14879   0.14992   2.04137
    D4       -0.93986   0.00428   0.00000  -0.04819  -0.04880  -0.98867
    D5        2.37852  -0.00506   0.00000  -0.08295  -0.08141   2.29710
    D6       -0.65845   0.00912   0.00000   0.11822   0.11853  -0.53991
    D7       -0.00383  -0.00451   0.00000  -0.08116  -0.08023  -0.08406
    D8       -3.04079   0.00967   0.00000   0.12001   0.11971  -2.92108
    D9       -2.93291   0.00873   0.00000   0.12367   0.11461  -2.81830
   D10       -0.41521   0.00318   0.00000   0.12118   0.11462  -0.30059
   D11       -0.32108  -0.00177   0.00000  -0.07481  -0.07033  -0.39141
   D12        2.19663  -0.00731   0.00000  -0.07730  -0.07032   2.12631
   D13        3.00152   0.01228   0.00000   0.25410   0.25631  -3.02535
   D14       -2.50383   0.01756   0.00000   0.24194   0.24504  -2.25879
   D15        0.23242   0.00545   0.00000   0.02269   0.01737   0.24979
   D16       -3.11133   0.00074   0.00000   0.00793   0.00793  -3.10339
         Item               Value     Threshold  Converged?
 Maximum Force            0.019562     0.000450     NO 
 RMS     Force            0.008553     0.000300     NO 
 Maximum Displacement     0.256792     0.001800     NO 
 RMS     Displacement     0.098306     0.001200     NO 
 Predicted change in Energy=-2.126675D-02
 GradGradGradGradGradGradGradGradGradGradGradGradGradGradGradGradGradGrad

 Leave Link  103 at Tue May 29 05:17:06 2018, MaxMem=   402653184 cpu:         1.0
 (Enter /sob/g09/l202.exe)
                          Input orientation:                          
 ---------------------------------------------------------------------
 Center     Atomic      Atomic             Coordinates (Angstroms)
 Number     Number       Type             X           Y           Z
 ---------------------------------------------------------------------
      1          6           0        1.426670   -0.831451   -0.076161
      2          6           0        0.139773   -0.338866    0.478550
      3          6           0        0.900001    0.239731   -0.989883
      4          1           0        2.333369   -0.563194    0.451418
      5          1           0        1.431106   -1.842406   -0.455762
      6          1           0        0.090314   -0.070727    1.536354
      7          1           0        0.621661    0.006112   -1.993556
      8          1           0        1.131013    1.217268   -0.624948
      9          6           0       -0.827989   -0.464258   -0.513050
     10          8           0       -2.043095    0.084549   -0.196927
     11          1           0       -2.656377   -0.080282   -0.925365
 ---------------------------------------------------------------------
                    Distance matrix (angstroms):
                    1          2          3          4          5
     1  C    0.000000
     2  C    1.485412   0.000000
     3  C    1.503229   1.751860   0.000000
     4  H    1.082776   2.205203   2.185538   0.000000
     5  H    1.079882   2.191143   2.214192   1.809264   0.000000
     6  H    2.228172   1.092380   2.670927   2.539863   2.984140
     7  H    2.241865   2.542151   1.067433   3.038413   2.537130
     8  H    2.141456   2.149841   1.068701   2.402971   3.079007
     9  C    2.325767   1.391243   1.925856   3.306686   2.646900
    10  O    3.590670   2.323889   3.051995   4.471393   3.981233
    11  H    4.237532   3.139474   3.571330   5.198682   4.475837
                    6          7          8          9         10
     6  H    0.000000
     7  H    3.570504   0.000000
     8  H    2.722722   1.897216   0.000000
     9  C    2.279957   2.124766   2.584133   0.000000
    10  O    2.753145   3.214802   3.397236   1.370257   0.000000
    11  H    3.688423   3.448771   4.014749   1.913228   0.966388
                   11
    11  H    0.000000
 Stoichiometry    C4H6O
 Framework group  C1[X(C4H6O)]
 Deg. of freedom    27
 Full point group                 C1      NOp   1
 RotChk:  IX=2 Diff= 9.05D-02
 Largest Abelian subgroup         C1      NOp   1
 Largest concise Abelian subgroup C1      NOp   1
                         Standard orientation:                         
 ---------------------------------------------------------------------
 Center     Atomic      Atomic             Coordinates (Angstroms)
 Number     Number       Type             X           Y           Z
 ---------------------------------------------------------------------
      1          6           0       -1.588786   -0.313052    0.281227
      2          6           0       -0.254381   -0.707695   -0.238453
      3          6           0       -0.911420    0.916177   -0.257167
      4          1           0       -2.457702   -0.628145   -0.282780
      5          1           0       -1.724400   -0.370463    1.351021
      6          1           0       -0.182563   -1.570478   -0.904593
      7          1           0       -0.654478    1.721701    0.394388
      8          1           0       -1.013406    0.989132   -1.318487
      9          6           0        0.700069    0.084684    0.391401
     10          8           0        1.973893   -0.064650   -0.090966
     11          1           0        2.568510    0.494767    0.426132
 ---------------------------------------------------------------------
 Rotational constants (GHZ):     14.9299358      3.7289835      3.3472062
 Leave Link  202 at Tue May 29 05:17:06 2018, MaxMem=   402653184 cpu:         0.0
 (Enter /sob/g09/l301.exe)
 Standard basis: STO-3G (5D, 7F)
 Ernie: Thresh=  0.10000D-02 Tol=  0.10000D-05 Strict=F.
 There are    31 symmetry adapted cartesian basis functions of A   symmetry.
 There are    31 symmetry adapted basis functions of A   symmetry.
    31 basis functions,    93 primitive gaussians,    31 cartesian basis functions
    19 alpha electrons       19 beta electrons
       nuclear repulsion energy       165.5498578591 Hartrees.
 IExCor=    0 DFT=F Ex=HF Corr=None ExCW=0 ScaHFX=  1.000000
 ScaDFX=  1.000000  1.000000  1.000000  1.000000 ScalE2=  1.000000  1.000000
 IRadAn=      0 IRanWt=     -1 IRanGd=            0 ICorTp=0 IEmpDi=  4
 NAtoms=   11 NActive=   11 NUniq=   11 SFac= 1.00D+00 NAtFMM=   60 NAOKFM=F Big=F
 Integral buffers will be    131072 words long.
 Raffenetti 1 integral format.
 Two-electron integral symmetry is turned on.
 Leave Link  301 at Tue May 29 05:17:06 2018, MaxMem=   402653184 cpu:         0.1
 (Enter /sob/g09/l402.exe)
 External calculation of energy and first derivatives.
 Running external command "./xtb.sh R"
         input file       "/sob/g09/scratch/Gau-31554.EIn"
         output file      "/sob/g09/scratch/Gau-31554.EOu"
         message file     "/sob/g09/scratch/Gau-31554.EMs"
         fchk file        "/sob/g09/scratch/Gau-31554.EFC"
         mat. el file     "/sob/g09/scratch/Gau-31554.EUF"
Generating mol.tmp
Generating mol.xyz via genxyz
Running: xtb mol.xyz -chrg 0 -uhf 0 -grad > xtbout
xtb running finished!
Extracting data from xtb outputs via extderi
 Recovered energy= -15.5153587944     dipole=      0.000000000000      0.000000000000      0.000000000000
 Energy=    -15.5153588     NIter=   0.
 Dipole moment=       0.000000       0.000000       0.000000
 Leave Link  402 at Tue May 29 05:17:06 2018, MaxMem=   402653184 cpu:         0.7
 (Enter /sob/g09/l716.exe)
 Dipole        = 0.00000000D+00 0.00000000D+00 0.00000000D+00
 ***** Axes restored to original set *****
 -------------------------------------------------------------------
 Center     Atomic                   Forces (Hartrees/Bohr)
 Number     Number              X              Y              Z
 -------------------------------------------------------------------
      1        6           0.002743437    0.002400247   -0.006850658
      2        6           0.007994019   -0.020889260   -0.001099169
      3        6          -0.011470998   -0.008089717    0.024356027
      4        1          -0.001498618   -0.002788626    0.003920228
      5        1           0.002262657    0.000689992   -0.003399619
      6        1          -0.003862028    0.012081633   -0.003327334
      7        1           0.005639950    0.008216544   -0.004682698
      8        1           0.005245531    0.011930813   -0.013684235
      9        6          -0.006080660   -0.013321841    0.007269091
     10        8          -0.000775317    0.009664791   -0.003178182
     11        1          -0.000197973    0.000105425    0.000676550
 -------------------------------------------------------------------
 Cartesian Forces:  Max     0.024356027 RMS     0.008557652
[...]
     9  C    2.240507   2.196836   2.506763   0.000000
    10  O    2.637936   3.168713   3.057616   1.389186   0.000000
    11  H    3.577683   3.446154   3.691705   1.924206   0.964584
                   11
    11  H    0.000000
 Stoichiometry    C4H6O
 Framework group  C1[X(C4H6O)]
 Deg. of freedom    27
 Full point group                 C1      NOp   1
 RotChk:  IX=2 Diff= 2.76D-03
 Largest Abelian subgroup         C1      NOp   1
 Largest concise Abelian subgroup C1      NOp   1
                         Standard orientation:                         
 ---------------------------------------------------------------------
 Center     Atomic      Atomic             Coordinates (Angstroms)
 Number     Number       Type             X           Y           Z
 ---------------------------------------------------------------------
      1          6           0       -1.635818   -0.218172    0.181013
      2          6           0       -0.312469   -0.787626   -0.130031
      3          6           0       -0.693193    0.887049   -0.242262
      4          1           0       -2.444739   -0.499606   -0.480494
      5          1           0       -1.934431   -0.163636    1.218656
      6          1           0       -0.171403   -1.467572   -0.972384
      7          1           0       -0.638260    1.766364    0.383120
      8          1           0       -0.665966    1.131623   -1.299910
      9          6           0        0.664027    0.000952    0.499135
     10          8           0        1.897770   -0.061044   -0.136373
     11          1           0        2.537355    0.427965    0.394873
 ---------------------------------------------------------------------
 Rotational constants (GHZ):     14.9418097      3.9422093      3.5199096
 Leave Link  202 at Tue May 29 05:17:13 2018, MaxMem=   402653184 cpu:         0.0
 (Enter /sob/g09/l301.exe)
 Standard basis: STO-3G (5D, 7F)
 Ernie: Thresh=  0.10000D-02 Tol=  0.10000D-05 Strict=F.
 There are    31 symmetry adapted cartesian basis functions of A   symmetry.
 There are    31 symmetry adapted basis functions of A   symmetry.
    31 basis functions,    93 primitive gaussians,    31 cartesian basis functions
    19 alpha electrons       19 beta electrons
       nuclear repulsion energy       167.2042258151 Hartrees.
 IExCor=    0 DFT=F Ex=HF Corr=None ExCW=0 ScaHFX=  1.000000
 ScaDFX=  1.000000  1.000000  1.000000  1.000000 ScalE2=  1.000000  1.000000
 IRadAn=      0 IRanWt=     -1 IRanGd=            0 ICorTp=0 IEmpDi=  4
 NAtoms=   11 NActive=   11 NUniq=   11 SFac= 1.00D+00 NAtFMM=   60 NAOKFM=F Big=F
 Integral buffers will be    131072 words long.
 Raffenetti 1 integral format.
 Two-electron integral symmetry is turned on.
 Leave Link  301 at Tue May 29 05:17:13 2018, MaxMem=   402653184 cpu:         0.1
 (Enter /sob/g09/l402.exe)
 External calculation of energy and first derivatives.
 Running external command "./xtb.sh R"
         input file       "/sob/g09/scratch/Gau-31554.EIn"
         output file      "/sob/g09/scratch/Gau-31554.EOu"
         message file     "/sob/g09/scratch/Gau-31554.EMs"
         fchk file        "/sob/g09/scratch/Gau-31554.EFC"
         mat. el file     "/sob/g09/scratch/Gau-31554.EUF"
Generating mol.tmp
Generating mol.xyz via genxyz
Running: xtb mol.xyz -chrg 0 -uhf 0 -grad > xtbout
xtb running finished!
Extracting data from xtb outputs via extderi
 Recovered energy= -15.5282213460     dipole=      0.000000000000      0.000000000000      0.000000000000
 Energy=    -15.5282213     NIter=   0.
 Dipole moment=       0.000000       0.000000       0.000000
 Leave Link  402 at Tue May 29 05:17:14 2018, MaxMem=   402653184 cpu:         0.5
 (Enter /sob/g09/l716.exe)
 Dipole        = 0.00000000D+00 0.00000000D+00 0.00000000D+00
 ***** Axes restored to original set *****
 -------------------------------------------------------------------
 Center     Atomic                   Forces (Hartrees/Bohr)
 Number     Number              X              Y              Z
 -------------------------------------------------------------------
      1        6           0.000032150   -0.000059489   -0.000013592
      2        6           0.000018289   -0.000033948    0.000012647
      3        6          -0.000016344    0.000182774    0.000055596
      4        1           0.000002313   -0.000002771   -0.000003686
      5        1           0.000006870   -0.000002030   -0.000001303
      6        1          -0.000017553    0.000043643   -0.000000459
      7        1          -0.000004047   -0.000032276    0.000006897
      8        1          -0.000000650   -0.000064568   -0.000024301
      9        6          -0.000014851   -0.000054728   -0.000037933
     10        8          -0.000004845    0.000021399    0.000002931
     11        1          -0.000001332    0.000001993    0.000003203
 -------------------------------------------------------------------
 Cartesian Forces:  Max     0.000182774 RMS     0.000041373
 Leave Link  716 at Tue May 29 05:17:14 2018, MaxMem=   402653184 cpu:         0.0
 (Enter /sob/g09/l103.exe)

 GradGradGradGradGradGradGradGradGradGradGradGradGradGradGradGradGradGrad
 Berny optimization.
 FormGI is forming the generalized inverse of G from B-inverse, IUseBI=4.
 Internal  Forces:  Max     0.000067330 RMS     0.000021987
 Search for a saddle point.
 Step number  13 out of a maximum of   54
 All quantities printed in internal units (Hartrees-Bohrs-Radians)
 Swapping is turned off.
 Update second derivatives using D2CorX and points    6    7    8    9   10
                                                     11   12   13
 ITU=  0  0  0  0  0  0  0  0  0  0  0  0  0
     Eigenvalues ---   -0.16513   0.00901   0.01305   0.01984   0.02333
     Eigenvalues ---    0.03292   0.03641   0.03972   0.04310   0.05259
     Eigenvalues ---    0.05869   0.06346   0.11747   0.14873   0.16207
     Eigenvalues ---    0.21725   0.22860   0.29325   0.30562   0.30743
     Eigenvalues ---    0.31778   0.32343   0.33418   0.34898   0.36719
     Eigenvalues ---    0.40918   0.55162
 Eigenvectors required to have negative eigenvalues:
                          R5        A9        R7        D4        A7
   1                   -0.41344   0.40259   0.30441   0.25895   0.24917
                          A8        D11       A16       A4        D2
   1                   -0.23747   0.22884  -0.21915   0.19798   0.19401
 RFO step:  Lambda0=3.163214980D-08 Lambda=-2.11946175D-07.
 Linear search not attempted -- option 19 set.
 Iteration  1 RMS(Cart)=  0.00053600 RMS(Int)=  0.00000034
 Iteration  2 RMS(Cart)=  0.00000034 RMS(Int)=  0.00000015
 ITry= 1 IFail=0 DXMaxC= 1.37D-03 DCOld= 1.00D+10 DXMaxT= 3.00D-01 DXLimC= 3.00D+00 Rises=F
 Variable       Old X    -DE/DX   Delta X   Delta X   Delta X     New X
                                 (Linear)    (Quad)   (Total)
    R1        2.78520   0.00003   0.00000   0.00000   0.00000   2.78520
    R2        2.85919   0.00004   0.00000   0.00029   0.00029   2.85948
    R3        2.04506   0.00000   0.00000   0.00000   0.00000   2.04506
    R4        2.04304   0.00000   0.00000  -0.00001  -0.00001   2.04303
    R5        3.25235  -0.00002   0.00000   0.00011   0.00011   3.25246
    R6        2.06299   0.00002   0.00000   0.00011   0.00011   2.06310
    R7        2.65320   0.00004   0.00000  -0.00002  -0.00002   2.65318
    R8        2.04170   0.00000   0.00000  -0.00004  -0.00004   2.04166
    R9        2.05205  -0.00007   0.00000  -0.00041  -0.00041   2.05164
   R10        2.62518   0.00002   0.00000   0.00015   0.00015   2.62533
   R11        1.82280   0.00000   0.00000  -0.00001  -0.00001   1.82279
    A1        2.02825   0.00001   0.00000  -0.00008  -0.00008   2.02817
    A2        2.06013   0.00000   0.00000   0.00009   0.00009   2.06022
    A3        2.07676  -0.00002   0.00000   0.00009   0.00009   2.07685
    A4        1.98639   0.00003   0.00000   0.00001   0.00001   1.98640
    A5        1.97505  -0.00001   0.00000  -0.00005  -0.00005   1.97500
    A6        2.11707   0.00001   0.00000  -0.00037  -0.00037   2.11670
    A7        1.88904  -0.00001   0.00000   0.00004   0.00004   1.88908
    A8        2.19483  -0.00004   0.00000  -0.00091  -0.00091   2.19392
    A9        1.19883   0.00001   0.00000  -0.00035  -0.00035   1.19849
   A10        2.22147  -0.00001   0.00000  -0.00018  -0.00018   2.22129
   A11        2.05358  -0.00004   0.00000  -0.00088  -0.00088   2.05270
   A12        2.04050   0.00003   0.00000   0.00016   0.00016   2.04066
   A13        2.40823  -0.00003   0.00000  -0.00049  -0.00049   2.40774
   A14        1.85159   0.00002   0.00000   0.00048   0.00048   1.85207
   A15        1.95972   0.00001   0.00000   0.00036   0.00036   1.96008
   A16        1.96884  -0.00003   0.00000  -0.00021  -0.00021   1.96863
   A17        1.89051   0.00001   0.00000   0.00002   0.00002   1.89054
    D1       -0.01781   0.00001   0.00000   0.00105   0.00105  -0.01676
    D2        2.79571   0.00001   0.00000  -0.00042  -0.00042   2.79529
    D3        2.41455   0.00002   0.00000   0.00097   0.00097   2.41552
    D4       -1.05512   0.00001   0.00000  -0.00050  -0.00050  -1.05562
    D5        2.08119   0.00000   0.00000   0.00028   0.00028   2.08147
    D6       -0.33191   0.00000   0.00000   0.00062   0.00062  -0.33130
    D7       -0.31678   0.00000   0.00000   0.00025   0.00025  -0.31654
    D8       -2.72989   0.00000   0.00000   0.00058   0.00058  -2.72930
    D9       -2.80571   0.00000   0.00000  -0.00118  -0.00118  -2.80689
   D10       -0.09236   0.00002   0.00000   0.00013   0.00013  -0.09223
   D11       -0.68772   0.00000   0.00000  -0.00159  -0.00159  -0.68931
   D12        2.02563   0.00002   0.00000  -0.00028  -0.00028   2.02534
   D13       -2.69565   0.00000   0.00000   0.00115   0.00115  -2.69451
   D14       -1.99176   0.00004   0.00000   0.00089   0.00089  -1.99086
   D15        0.09260   0.00000   0.00000  -0.00048  -0.00048   0.09212
   D16       -3.04331   0.00000   0.00000   0.00078   0.00078  -3.04253
         Item               Value     Threshold  Converged?
 Maximum Force            0.000067     0.000450     YES
 RMS     Force            0.000022     0.000300     YES
 Maximum Displacement     0.001372     0.001800     YES
 RMS     Displacement     0.000536     0.001200     YES
 Predicted change in Energy=-9.015849D-08
 Optimization completed.
    -- Stationary point found.
                           ----------------------------
                           !   Optimized Parameters   !
                           ! (Angstroms and Degrees)  !
 --------------------------                            --------------------------
 ! Name  Definition              Value          Derivative Info.                !
 --------------------------------------------------------------------------------
 ! R1    R(1,2)                  1.4739         -DE/DX =    0.0                 !
 ! R2    R(1,3)                  1.513          -DE/DX =    0.0                 !
 ! R3    R(1,4)                  1.0822         -DE/DX =    0.0                 !
 ! R4    R(1,5)                  1.0811         -DE/DX =    0.0                 !
 ! R5    R(2,3)                  1.7211         -DE/DX =    0.0                 !
 ! R6    R(2,6)                  1.0917         -DE/DX =    0.0                 !
 ! R7    R(2,9)                  1.404          -DE/DX =    0.0                 !
 ! R8    R(3,7)                  1.0804         -DE/DX =    0.0                 !
 ! R9    R(3,8)                  1.0859         -DE/DX =   -0.0001              !
 ! R10   R(9,10)                 1.3892         -DE/DX =    0.0                 !
 ! R11   R(10,11)                0.9646         -DE/DX =    0.0                 !
 ! A1    A(2,1,4)              116.2103         -DE/DX =    0.0                 !
 ! A2    A(2,1,5)              118.0367         -DE/DX =    0.0                 !
 ! A3    A(3,1,4)              118.9895         -DE/DX =    0.0                 !
 ! A4    A(3,1,5)              113.8117         -DE/DX =    0.0                 !
 ! A5    A(4,1,5)              113.1622         -DE/DX =    0.0                 !
 ! A6    A(1,2,6)              121.2992         -DE/DX =    0.0                 !
 ! A7    A(1,2,9)              108.234          -DE/DX =    0.0                 !
 ! A8    A(3,2,6)              125.7547         -DE/DX =    0.0                 !
 ! A9    A(3,2,9)               68.6882         -DE/DX =    0.0                 !
 ! A10   A(6,2,9)              127.2809         -DE/DX =    0.0                 !
 ! A11   A(1,3,7)              117.6617         -DE/DX =    0.0                 !
 ! A12   A(1,3,8)              116.912          -DE/DX =    0.0                 !
 ! A13   A(2,3,7)              137.9815         -DE/DX =    0.0                 !
 ! A14   A(2,3,8)              106.0885         -DE/DX =    0.0                 !
 ! A15   A(7,3,8)              112.2837         -DE/DX =    0.0                 !
 ! A16   A(2,9,10)             112.8062         -DE/DX =    0.0                 !
 ! A17   A(9,10,11)            108.3184         -DE/DX =    0.0                 !
 ! D1    D(4,1,2,6)             -1.0204         -DE/DX =    0.0                 !
 ! D2    D(4,1,2,9)            160.1823         -DE/DX =    0.0                 !
 ! D3    D(5,1,2,6)            138.3435         -DE/DX =    0.0                 !
 ! D4    D(5,1,2,9)            -60.4538         -DE/DX =    0.0                 !
 ! D5    D(4,1,3,7)            119.2435         -DE/DX =    0.0                 !
 ! D6    D(4,1,3,8)            -19.0172         -DE/DX =    0.0                 !
 ! D7    D(5,1,3,7)            -18.1504         -DE/DX =    0.0                 !
 ! D8    D(5,1,3,8)           -156.4111         -DE/DX =    0.0                 !
 ! D9    D(6,2,3,7)           -160.7556         -DE/DX =    0.0                 !
 ! D10   D(6,2,3,8)             -5.292          -DE/DX =    0.0                 !
 ! D11   D(9,2,3,7)            -39.4036         -DE/DX =    0.0                 !
 ! D12   D(9,2,3,8)            116.0599         -DE/DX =    0.0                 !
 ! D13   D(1,2,9,10)          -154.4496         -DE/DX =    0.0                 !
 ! D14   D(3,2,9,10)          -114.1192         -DE/DX =    0.0                 !
 ! D15   D(6,2,9,10)             5.3058         -DE/DX =    0.0                 !
 ! D16   D(2,9,10,11)         -174.3691         -DE/DX =    0.0                 !
 --------------------------------------------------------------------------------
 GradGradGradGradGradGradGradGradGradGradGradGradGradGradGradGradGradGrad

 Largest change from initial coordinates is atom    8       0.146 Angstoms.
 Leave Link  103 at Tue May 29 05:17:14 2018, MaxMem=   402653184 cpu:         1.1
 (Enter /sob/g09/l202.exe)
                          Input orientation:                          
 ---------------------------------------------------------------------
 Center     Atomic      Atomic             Coordinates (Angstroms)
 Number     Number       Type             X           Y           Z
 ---------------------------------------------------------------------
      1          6           0        1.452634   -0.843952   -0.062884
      2          6           0        0.141311   -0.526104    0.530144
      3          6           0        0.735636    0.169772   -0.927463
      4          1           0        2.321112   -0.530882    0.501814
      5          1           0        1.576877   -1.809175   -0.533793
      6          1           0        0.062542   -0.018625    1.493494
      7          1           0        0.683318   -0.024019   -1.989076
      8          1           0        0.916506    1.217905   -0.708646
      9          6           0       -0.824187   -0.572410   -0.488147
     10          8           0       -1.931776    0.220866   -0.216490
     11          1           0       -2.587528    0.073101   -0.908282
 ---------------------------------------------------------------------
                    Distance matrix (angstroms):
                    1          2          3          4          5
     1  C    0.000000
     2  C    1.473865   0.000000
     3  C    1.513016   1.721071   0.000000
     4  H    1.082197   2.179990   2.246660   0.000000
     5  H    1.081132   2.199791   2.186068   1.805658   0.000000
     6  H    2.244066   1.091688   2.519838   2.519320   3.099866
     7  H    2.230325   2.625324   1.080423   3.023874   2.470440
     8  H    2.226139   2.275323   1.085899   2.548801   3.103204
     9  C    2.332059   1.404012   1.782381   3.297674   2.701255
    10  O    3.551291   2.326611   2.761011   4.378144   4.066004
    11  H    4.228309   3.142401   3.324626   5.142754   4.585354
                    6          7          8          9         10
     6  H    0.000000
     7  H    3.537469   0.000000
     8  H    2.666023   1.798959   0.000000
     9  C    2.240507   2.196836   2.506763   0.000000
    10  O    2.637936   3.168713   3.057616   1.389186   0.000000
    11  H    3.577683   3.446154   3.691705   1.924206   0.964584
                   11
    11  H    0.000000
 Stoichiometry    C4H6O
 Framework group  C1[X(C4H6O)]
 Deg. of freedom    27
 Full point group                 C1      NOp   1
 RotChk:  IX=2 Diff= 4.72D-15
 Largest Abelian subgroup         C1      NOp   1
 Largest concise Abelian subgroup C1      NOp   1
                         Standard orientation:                         
 ---------------------------------------------------------------------
 Center     Atomic      Atomic             Coordinates (Angstroms)
 Number     Number       Type             X           Y           Z
 ---------------------------------------------------------------------
      1          6           0       -1.635818   -0.218172    0.181013
      2          6           0       -0.312469   -0.787626   -0.130031
      3          6           0       -0.693193    0.887049   -0.242262
      4          1           0       -2.444739   -0.499606   -0.480494
      5          1           0       -1.934431   -0.163636    1.218656
      6          1           0       -0.171403   -1.467572   -0.972384
      7          1           0       -0.638260    1.766364    0.383120
      8          1           0       -0.665966    1.131623   -1.299910
      9          6           0        0.664027    0.000952    0.499135
     10          8           0        1.897770   -0.061044   -0.136373
     11          1           0        2.537355    0.427965    0.394873
 ---------------------------------------------------------------------
 Rotational constants (GHZ):     14.9418097      3.9422093      3.5199096
 Leave Link  202 at Tue May 29 05:17:14 2018, MaxMem=   402653184 cpu:         0.0
 (Enter /sob/g09/l601.exe)
 Leave Link  601 at Tue May 29 05:17:14 2018, MaxMem=   402653184 cpu:         0.0
 (Enter /sob/g09/l9999.exe)
 1\1\GINC-192\FTS\RExternal='./xtb.sh'\ZDO\C4H6O1\ROOT\29-May-2018\0\\#
 P opt(ts,calcfc,noeigen,nomicro) external='./xtb.sh'\\Title Card Requi
 red\\0,1\C,1.4526344848,-0.8439518282,-0.0628842576\C,0.1413114361,-0.
 5261044753,0.5301439094\C,0.7356363825,0.1697718369,-0.9274631674\H,2.
 3211121958,-0.5308819991,0.5018142474\H,1.5768768745,-1.8091747847,-0.
 5337930674\H,0.0625423978,-0.0186248125,1.4934940511\H,0.6833177087,-0
 .0240194835,-1.9890757963\H,0.916506221,1.2179046768,-0.7086456405\C,-
 0.8241872265,-0.5724097335,-0.4881473711\O,-1.9317759728,0.220865958,-
 0.216490306\H,-2.5875280919,0.0731006352,-0.9082823215\\Version=ES64L-
 G09RevD.01\HF=-15.5282213\RMSD=0.000e+00\RMSF=4.137e-05\Dipole=0.,0.,0
 .\PG=C01 [X(C4H6O1)]\\@


 THERE IS SOMETHING FASCINATING ABOUT SCIENCE.
 ONE GETS SUCH WHOLESALE CONJECTURE OUT OF SUCH TRIFLING INVESTMENTS.

                                                       -- MARK TWAIN
 Job cpu time:       0 days  0 hours  0 minutes 33.2 seconds.
 File lengths (MBytes):  RWF=      5 Int=      0 D2E=      0 Chk=      3 Scr=      1
 Normal termination of Gaussian 09 at Tue May 29 05:17:14 2018.
